HOOMD-blue 1.3.3-unknown CUDA (7.5) SINGLE MPI SSE SSE2 SSE3 
Compiled: 03/06/2016
Copyright 2009-2016 The Regents of the University of Michigan.

All publications and presentations based on HOOMD-blue, including any reports
or published results obtained, in whole or in part, with HOOMD-blue, will
acknowledge its use according to the terms posted at the time of submission on:
http://codeblue.umich.edu/hoomd-blue/citations.html
-----
You are using HOOMD-blue. Read and cite the following:
* J A Anderson, C D Lorenz, and A Travesset. "General purpose molecular dynamics
  simulations fully implemented on graphics processing units", Journal of
  Computational Physics 227 (2008) 5342--5359
and
* J Glaser, T D Nguyen, J A Anderson, P Liu, F Spiga, J A Millan, D C Morse, and
  S C Glotzer. "Strong scaling of general-purpose molecular dynamics simulations
  on GPUs", Computer Physics Communications 192 (2015) 97--107
and
* http://codeblue.umich.edu/hoomd-blue
You can save these citations to file using cite.save().
-----
notice(2): The NVIDIA driver only supports CUDA versions up to 6.5, but HOOMD was built against CUDA 7.5
notice(2): Ignoring any GPUs in the system.
HOOMD-blue is running on the CPU
*** Loading parameters
N 3000
steps 850000
print_every 10000
comp_spread 25
nextrude 0
steps_per_extrude 200
nbonds 0
T 2.0
gamma 0.02
epsilon_intra 1.0
epsilon_inter 0.98
sigma 0.89089871814
lj_cut 2.5
k_bb 200.0
r0_bb 0.70710678118
k_loop 10.0
r0_loop 1.0
dt 0.005
*** Loading initial coordinates from /raid10/adrian/hoomd/test2_N3000/sim_1/structure1_t=150000.raw
Compartment boundary at 1021
Compartment boundary at 1238
Compartment boundary at 1780
Compartment boundary at 2978
Adjusted final boundary to 3000
Boxsize: 81.0865
hoomd_sim.py:070  |  system = init.read_snapshot(snapshot)
notice(2): Group "all" created containing 3000 particles
hoomd_sim.py:084  |  harmonic = bond.harmonic()
hoomd_sim.py:085  |  harmonic.bond_coeff.set('bb', k=params['k_bb'], r0=params['r0_bb'])
hoomd_sim.py:086  |  harmonic.bond_coeff.set('loop', k=params['k_loop'], r0=params['r0_loop'])
hoomd_sim.py:089  |  lj = pair.lj(r_cut=params['lj_cut'])
nlist.py:1051  |          globals.neighbor_list = cell();
hoomd_sim.py:090  |  lj.pair_coeff.set(comptypes[0], comptypes[0],
                  epsilon=params['epsilon_intra'], sigma=params['sigma'])
hoomd_sim.py:092  |  lj.pair_coeff.set(comptypes[1], comptypes[1],
                  epsilon=params['epsilon_intra'], sigma=params['sigma'])
hoomd_sim.py:094  |  lj.pair_coeff.set(comptypes[0], comptypes[1],
                  epsilon=params['epsilon_inter'], sigma=params['sigma'])
hoomd_sim.py:098  |  all = group.all();
hoomd_sim.py:099  |  integrate.mode_standard(dt=params['dt'])
hoomd_sim.py:100  |  lang = integrate.langevin(group=all, T=params['T'], seed=5)
notice(2): integrate.langevin/bd is using specified gamma values
hoomd_sim.py:101  |  lang.set_gamma('A', gamma=params['gamma'])
hoomd_sim.py:105  |  xml = dump.xml(filename='sim_topology.xml', vis=True) # system topology
hoomd_sim.py:106  |  dump.dcd(filename='sim_trajectory.dcd', period=params['print_every']) # trajectory
hoomd_sim.py:113  |  run(params['steps']+1)
notice(2): -- Neighborlist exclusion statistics -- :
notice(2): Particles with 1 exclusions             : 2
notice(2): Particles with 2 exclusions             : 2998
notice(2): Neighbors included by diameter          : no
notice(2): Neighbors excluded when in the same body: no
** starting run **
Time 00:00:10 | Step 184 / 850001 | TPS 18.3914 | ETA 12:50:07
Time 00:00:20 | Step 915 / 850001 | TPS 73.0754 | ETA 03:13:39
Time 00:00:30 | Step 1674 / 850001 | TPS 75.7942 | ETA 03:06:32
Time 00:00:40 | Step 2440 / 850001 | TPS 76.5908 | ETA 03:04:26
Time 00:00:50 | Step 3220 / 850001 | TPS 77.9522 | ETA 03:01:02
Time 00:01:00 | Step 4022 / 850001 | TPS 79.9143 | ETA 02:56:26
Time 00:01:10 | Step 4816 / 850001 | TPS 79.0974 | ETA 02:58:05
Time 00:01:20 | Step 5633 / 850001 | TPS 81.646 | ETA 02:52:21
Time 00:01:30 | Step 6439 / 850001 | TPS 80.5689 | ETA 02:54:30
Time 00:01:40 | Step 7243 / 850001 | TPS 80.3145 | ETA 02:54:53
Time 00:01:50 | Step 8057 / 850001 | TPS 81.3834 | ETA 02:52:25
Time 00:02:00 | Step 8878 / 850001 | TPS 81.9713 | ETA 02:51:01
Time 00:02:10 | Step 9678 / 850001 | TPS 79.8102 | ETA 02:55:29
Time 00:02:20 | Step 10472 / 850001 | TPS 79.3489 | ETA 02:56:20
Time 00:02:30 | Step 11269 / 850001 | TPS 79.6672 | ETA 02:55:27
Time 00:02:40 | Step 12069 / 850001 | TPS 79.9735 | ETA 02:54:37
Time 00:02:50 | Step 12875 / 850001 | TPS 80.5891 | ETA 02:53:07
Time 00:03:00 | Step 13684 / 850001 | TPS 80.8497 | ETA 02:52:24
Time 00:03:10 | Step 14494 / 850001 | TPS 80.6559 | ETA 02:52:38
Time 00:03:20 | Step 15298 / 850001 | TPS 80.3389 | ETA 02:53:09
Time 00:03:30 | Step 16098 / 850001 | TPS 79.9537 | ETA 02:53:49
Time 00:03:40 | Step 16908 / 850001 | TPS 80.7285 | ETA 02:51:59
Time 00:03:50 | Step 17715 / 850001 | TPS 80.5732 | ETA 02:52:09
Time 00:04:00 | Step 18516 / 850001 | TPS 80.0853 | ETA 02:53:02
Time 00:04:10 | Step 19317 / 850001 | TPS 80.0802 | ETA 02:52:53
Time 00:04:20 | Step 20122 / 850001 | TPS 80.3017 | ETA 02:52:14
Time 00:04:30 | Step 20926 / 850001 | TPS 80.3801 | ETA 02:51:54
Time 00:04:40 | Step 21728 / 850001 | TPS 80.1038 | ETA 02:52:19
Time 00:04:50 | Step 22533 / 850001 | TPS 80.4976 | ETA 02:51:19
Time 00:05:00 | Step 23350 / 850001 | TPS 81.4352 | ETA 02:49:11
Time 00:05:10 | Step 24162 / 850001 | TPS 81.1479 | ETA 02:49:36
Time 00:05:20 | Step 24971 / 850001 | TPS 80.7895 | ETA 02:50:12
Time 00:05:30 | Step 25775 / 850001 | TPS 80.3975 | ETA 02:50:51
Time 00:05:40 | Step 26581 / 850001 | TPS 80.5954 | ETA 02:50:16
Time 00:05:50 | Step 27391 / 850001 | TPS 80.9669 | ETA 02:49:19
Time 00:06:00 | Step 28187 / 850001 | TPS 79.5738 | ETA 02:52:07
Time 00:06:10 | Step 28988 / 850001 | TPS 80.0593 | ETA 02:50:55
Time 00:06:20 | Step 29791 / 850001 | TPS 80.1523 | ETA 02:50:33
Time 00:06:30 | Step 30598 / 850001 | TPS 80.5719 | ETA 02:49:29
Time 00:06:40 | Step 31420 / 850001 | TPS 82.1942 | ETA 02:45:59
Time 00:06:50 | Step 32221 / 850001 | TPS 79.9192 | ETA 02:50:32
Time 00:07:00 | Step 33030 / 850001 | TPS 80.7341 | ETA 02:48:39
Time 00:07:10 | Step 33849 / 850001 | TPS 81.6159 | ETA 02:46:39
Time 00:07:20 | Step 34661 / 850001 | TPS 81.1351 | ETA 02:47:29
Time 00:07:30 | Step 35467 / 850001 | TPS 80.5574 | ETA 02:48:31
Time 00:07:40 | Step 36278 / 850001 | TPS 80.9259 | ETA 02:47:35
Time 00:07:50 | Step 37095 / 850001 | TPS 81.686 | ETA 02:45:51
Time 00:08:00 | Step 37918 / 850001 | TPS 82.2913 | ETA 02:44:28
Time 00:08:10 | Step 38741 / 850001 | TPS 82.2933 | ETA 02:44:18
Time 00:08:20 | Step 39558 / 850001 | TPS 81.6887 | ETA 02:45:21
Time 00:08:30 | Step 40364 / 850001 | TPS 80.589 | ETA 02:47:26
Time 00:08:40 | Step 41176 / 850001 | TPS 81.1061 | ETA 02:46:12
Time 00:08:50 | Step 41972 / 850001 | TPS 79.5777 | ETA 02:49:13
Time 00:09:00 | Step 42767 / 850001 | TPS 79.4555 | ETA 02:49:19
Time 00:09:10 | Step 43557 / 850001 | TPS 78.9818 | ETA 02:50:10
Time 00:09:20 | Step 44351 / 850001 | TPS 79.3314 | ETA 02:49:15
Time 00:09:30 | Step 45153 / 850001 | TPS 79.8884 | ETA 02:47:54
Time 00:09:40 | Step 45954 / 850001 | TPS 79.8931 | ETA 02:47:44
Time 00:09:50 | Step 46759 / 850001 | TPS 80.4989 | ETA 02:46:18
Time 00:10:00 | Step 47555 / 850001 | TPS 79.5668 | ETA 02:48:05
Time 00:10:10 | Step 48357 / 850001 | TPS 80.005 | ETA 02:46:59
Time 00:10:20 | Step 49162 / 850001 | TPS 80.3716 | ETA 02:46:04
Time 00:10:30 | Step 49965 / 850001 | TPS 80.2819 | ETA 02:46:05
Time 00:10:40 | Step 50778 / 850001 | TPS 81.2631 | ETA 02:43:55
Time 00:10:50 | Step 51582 / 850001 | TPS 80.3661 | ETA 02:45:34
Time 00:11:00 | Step 52383 / 850001 | TPS 80.0615 | ETA 02:46:02
Time 00:11:10 | Step 53195 / 850001 | TPS 81.0939 | ETA 02:43:45
Time 00:11:20 | Step 53996 / 850001 | TPS 80.0832 | ETA 02:45:39
Time 00:11:30 | Step 54807 / 850001 | TPS 81.0901 | ETA 02:43:26
Time 00:11:40 | Step 55622 / 850001 | TPS 81.477 | ETA 02:42:29
Time 00:11:50 | Step 56436 / 850001 | TPS 81.2119 | ETA 02:42:51
Time 00:12:00 | Step 57239 / 850001 | TPS 80.1799 | ETA 02:44:47
Time 00:12:11 | Step 58050 / 850001 | TPS 81.0508 | ETA 02:42:51
Time 00:12:21 | Step 58869 / 850001 | TPS 81.8993 | ETA 02:40:59
Time 00:12:31 | Step 59673 / 850001 | TPS 80.1818 | ETA 02:44:16
Time 00:12:41 | Step 60478 / 850001 | TPS 80.1856 | ETA 02:44:06
Time 00:12:51 | Step 61279 / 850001 | TPS 80.0964 | ETA 02:44:07
Time 00:13:01 | Step 62088 / 850001 | TPS 80.6445 | ETA 02:42:50
Time 00:13:11 | Step 62901 / 850001 | TPS 81.2589 | ETA 02:41:26
Time 00:13:21 | Step 63708 / 850001 | TPS 80.6716 | ETA 02:42:26
Time 00:13:31 | Step 64506 / 850001 | TPS 79.7796 | ETA 02:44:05
Time 00:13:41 | Step 65310 / 850001 | TPS 80.3625 | ETA 02:42:44
Time 00:13:51 | Step 66108 / 850001 | TPS 79.7725 | ETA 02:43:46
Time 00:14:01 | Step 66915 / 850001 | TPS 80.4107 | ETA 02:42:18
Time 00:14:11 | Step 67732 / 850001 | TPS 81.6696 | ETA 02:39:38
Time 00:14:21 | Step 68533 / 850001 | TPS 79.8644 | ETA 02:43:04
Time 00:14:31 | Step 69345 / 850001 | TPS 80.9182 | ETA 02:40:47
Time 00:14:41 | Step 70157 / 850001 | TPS 81.1617 | ETA 02:40:08
Time 00:14:51 | Step 70958 / 850001 | TPS 80.0637 | ETA 02:42:10
Time 00:15:01 | Step 71772 / 850001 | TPS 81.2751 | ETA 02:39:35
Time 00:15:11 | Step 72584 / 850001 | TPS 80.972 | ETA 02:40:01
Time 00:15:21 | Step 73394 / 850001 | TPS 80.9988 | ETA 02:39:47
Time 00:15:31 | Step 74207 / 850001 | TPS 81.2853 | ETA 02:39:04
Time 00:15:41 | Step 75019 / 850001 | TPS 81.1524 | ETA 02:39:09
Time 00:15:51 | Step 75827 / 850001 | TPS 80.7819 | ETA 02:39:43
Time 00:16:01 | Step 76638 / 850001 | TPS 80.85 | ETA 02:39:25
Time 00:16:11 | Step 77455 / 850001 | TPS 81.6552 | ETA 02:37:41
Time 00:16:21 | Step 78251 / 850001 | TPS 79.5814 | ETA 02:41:37
Time 00:16:31 | Step 79058 / 850001 | TPS 80.6675 | ETA 02:39:17
Time 00:16:41 | Step 79863 / 850001 | TPS 80.3636 | ETA 02:39:43
Time 00:16:51 | Step 80670 / 850001 | TPS 80.3699 | ETA 02:39:32
Time 00:17:01 | Step 81475 / 850001 | TPS 80.4506 | ETA 02:39:12
Time 00:17:11 | Step 82280 / 850001 | TPS 80.1516 | ETA 02:39:38
Time 00:17:21 | Step 83090 / 850001 | TPS 80.9919 | ETA 02:37:48
Time 00:17:31 | Step 83901 / 850001 | TPS 81.0567 | ETA 02:37:31
Time 00:17:41 | Step 84710 / 850001 | TPS 80.8832 | ETA 02:37:41
Time 00:17:51 | Step 85528 / 850001 | TPS 81.6705 | ETA 02:36:00
Time 00:18:01 | Step 86330 / 850001 | TPS 80.1763 | ETA 02:38:44
Time 00:18:11 | Step 87141 / 850001 | TPS 81.0625 | ETA 02:36:50
Time 00:18:21 | Step 87948 / 850001 | TPS 80.6788 | ETA 02:37:25
Time 00:18:31 | Step 88748 / 850001 | TPS 79.9989 | ETA 02:38:35
Time 00:18:41 | Step 89558 / 850001 | TPS 80.9835 | ETA 02:36:30
Time 00:18:51 | Step 90364 / 850001 | TPS 80.557 | ETA 02:37:09
Time 00:19:01 | Step 91171 / 850001 | TPS 80.3669 | ETA 02:37:22
Time 00:19:11 | Step 91965 / 850001 | TPS 79.1535 | ETA 02:39:36
Time 00:19:21 | Step 92761 / 850001 | TPS 79.5648 | ETA 02:38:37
Time 00:19:31 | Step 93561 / 850001 | TPS 79.9886 | ETA 02:37:36
Time 00:19:41 | Step 94367 / 850001 | TPS 80.5866 | ETA 02:36:16
Time 00:19:51 | Step 95177 / 850001 | TPS 80.9907 | ETA 02:35:19
Time 00:20:01 | Step 95985 / 850001 | TPS 80.7039 | ETA 02:35:42
Time 00:20:11 | Step 96786 / 850001 | TPS 80.0609 | ETA 02:36:48
Time 00:20:21 | Step 97584 / 850001 | TPS 79.5628 | ETA 02:37:36
Time 00:20:31 | Step 98381 / 850001 | TPS 79.6682 | ETA 02:37:14
Time 00:20:41 | Step 99185 / 850001 | TPS 80.3798 | ETA 02:35:40
Time 00:20:51 | Step 99983 / 850001 | TPS 79.7997 | ETA 02:36:38
Time 00:21:01 | Step 100787 / 850001 | TPS 80.2751 | ETA 02:35:33
Time 00:21:11 | Step 101550 / 850001 | TPS 76.0947 | ETA 02:43:55
Time 00:21:21 | Step 102223 / 850001 | TPS 67.1845 | ETA 03:05:30
Time 00:21:31 | Step 102929 / 850001 | TPS 70.5156 | ETA 02:56:34
Time 00:21:41 | Step 103669 / 850001 | TPS 73.9862 | ETA 02:48:07
Time 00:21:51 | Step 104380 / 850001 | TPS 70.9868 | ETA 02:55:03
Time 00:22:01 | Step 105081 / 850001 | TPS 70.0342 | ETA 02:57:16
Time 00:22:11 | Step 105801 / 850001 | TPS 71.8377 | ETA 02:52:39
Time 00:22:21 | Step 106480 / 850001 | TPS 67.8906 | ETA 03:02:31
Time 00:22:31 | Step 107194 / 850001 | TPS 71.3881 | ETA 02:53:25
Time 00:22:41 | Step 107892 / 850001 | TPS 69.4892 | ETA 02:57:59
Time 00:22:51 | Step 108634 / 850001 | TPS 74.1748 | ETA 02:46:34
Time 00:23:01 | Step 109377 / 850001 | TPS 74.2828 | ETA 02:46:10
Time 00:23:11 | Step 110063 / 850001 | TPS 68.3338 | ETA 03:00:28
Time 00:23:21 | Step 110789 / 850001 | TPS 72.5282 | ETA 02:49:52
Time 00:23:31 | Step 111491 / 850001 | TPS 69.8872 | ETA 02:56:07
Time 00:23:41 | Step 112220 / 850001 | TPS 72.8911 | ETA 02:48:41
Time 00:23:51 | Step 112925 / 850001 | TPS 70.4835 | ETA 02:54:17
Time 00:24:01 | Step 113653 / 850001 | TPS 72.7801 | ETA 02:48:37
Time 00:24:11 | Step 114380 / 850001 | TPS 72.6003 | ETA 02:48:52
Time 00:24:21 | Step 115107 / 850001 | TPS 72.4119 | ETA 02:49:08
Time 00:24:31 | Step 115808 / 850001 | TPS 69.9039 | ETA 02:55:02
Time 00:24:41 | Step 116547 / 850001 | TPS 73.8855 | ETA 02:45:26
Time 00:24:51 | Step 117255 / 850001 | TPS 70.7198 | ETA 02:52:41
Time 00:25:02 | Step 117990 / 850001 | TPS 73.3477 | ETA 02:46:20
Time 00:25:12 | Step 118757 / 850001 | TPS 76.6031 | ETA 02:39:05
Time 00:25:22 | Step 119499 / 850001 | TPS 74.1659 | ETA 02:44:09
Time 00:25:32 | Step 120273 / 850001 | TPS 77.1172 | ETA 02:37:42
Time 00:25:42 | Step 121077 / 850001 | TPS 80.0909 | ETA 02:31:41
Time 00:25:52 | Step 121874 / 850001 | TPS 79.5646 | ETA 02:32:31
Time 00:26:02 | Step 122608 / 850001 | TPS 73.3315 | ETA 02:45:19
Time 00:26:12 | Step 123298 / 850001 | TPS 68.8031 | ETA 02:56:02
Time 00:26:22 | Step 123984 / 850001 | TPS 68.5675 | ETA 02:56:28
Time 00:26:32 | Step 124687 / 850001 | TPS 70.2078 | ETA 02:52:10
Time 00:26:42 | Step 125428 / 850001 | TPS 73.8264 | ETA 02:43:34
Time 00:26:52 | Step 126140 / 850001 | TPS 71.1974 | ETA 02:49:26
Time 00:27:02 | Step 126883 / 850001 | TPS 74.2589 | ETA 02:42:17
Time 00:27:12 | Step 127579 / 850001 | TPS 69.4131 | ETA 02:53:27
Time 00:27:22 | Step 128377 / 850001 | TPS 79.6446 | ETA 02:31:00
Time 00:27:32 | Step 129180 / 850001 | TPS 80.2612 | ETA 02:29:40
Time 00:27:42 | Step 129983 / 850001 | TPS 80.1412 | ETA 02:29:44
Time 00:27:52 | Step 130799 / 850001 | TPS 81.2801 | ETA 02:27:28
Time 00:28:02 | Step 131588 / 850001 | TPS 78.7041 | ETA 02:32:08
Time 00:28:12 | Step 132399 / 850001 | TPS 81.0569 | ETA 02:27:33
Time 00:28:22 | Step 133106 / 850001 | TPS 70.6559 | ETA 02:49:06
Time 00:28:32 | Step 133839 / 850001 | TPS 72.9871 | ETA 02:43:32
Time 00:28:42 | Step 134551 / 850001 | TPS 71.1685 | ETA 02:47:32
Time 00:28:52 | Step 135293 / 850001 | TPS 74.1916 | ETA 02:40:33
Time 00:29:02 | Step 136064 / 850001 | TPS 76.9139 | ETA 02:34:42
Time 00:29:12 | Step 136808 / 850001 | TPS 73.9531 | ETA 02:40:43
Time 00:29:22 | Step 137514 / 850001 | TPS 70.5754 | ETA 02:48:15
Time 00:29:32 | Step 138263 / 850001 | TPS 74.8841 | ETA 02:38:24
Time 00:29:42 | Step 139000 / 850001 | TPS 73.6809 | ETA 02:40:49
Time 00:29:52 | Step 139726 / 850001 | TPS 72.5799 | ETA 02:43:06
Time 00:30:02 | Step 140411 / 850001 | TPS 68.4788 | ETA 02:52:42
Time 00:30:12 | Step 141107 / 850001 | TPS 69.5671 | ETA 02:49:50
Time 00:30:22 | Step 141851 / 850001 | TPS 74.3587 | ETA 02:38:43
Time 00:30:32 | Step 142606 / 850001 | TPS 75.4945 | ETA 02:36:10
Time 00:30:42 | Step 143301 / 850001 | TPS 69.2077 | ETA 02:50:11
Time 00:30:52 | Step 144028 / 850001 | TPS 72.6565 | ETA 02:41:56
Time 00:31:02 | Step 144829 / 850001 | TPS 79.9201 | ETA 02:27:03
Time 00:31:12 | Step 145575 / 850001 | TPS 74.592 | ETA 02:37:23
Time 00:31:22 | Step 146328 / 850001 | TPS 75.2923 | ETA 02:35:45
Time 00:31:32 | Step 147041 / 850001 | TPS 71.0328 | ETA 02:44:56
Time 00:31:42 | Step 147765 / 850001 | TPS 72.1979 | ETA 02:42:06
Time 00:31:52 | Step 148515 / 850001 | TPS 74.7972 | ETA 02:36:18
Time 00:32:02 | Step 149280 / 850001 | TPS 76.4558 | ETA 02:32:45
Time 00:32:12 | Step 150068 / 850001 | TPS 78.5292 | ETA 02:28:33
Time 00:32:22 | Step 150861 / 850001 | TPS 79.1685 | ETA 02:27:11
Time 00:32:32 | Step 151610 / 850001 | TPS 74.8755 | ETA 02:35:27
Time 00:32:42 | Step 152334 / 850001 | TPS 72.393 | ETA 02:40:37
Time 00:32:52 | Step 153093 / 850001 | TPS 75.8755 | ETA 02:33:04
Time 00:33:02 | Step 153893 / 850001 | TPS 79.7542 | ETA 02:25:28
Time 00:33:12 | Step 154690 / 850001 | TPS 79.5474 | ETA 02:25:40
Time 00:33:22 | Step 155489 / 850001 | TPS 79.8716 | ETA 02:24:55
Time 00:33:32 | Step 156295 / 850001 | TPS 80.5778 | ETA 02:23:29
Time 00:33:42 | Step 157096 / 850001 | TPS 80.051 | ETA 02:24:15
Time 00:33:52 | Step 157901 / 850001 | TPS 80.4071 | ETA 02:23:27
Time 00:34:02 | Step 158701 / 850001 | TPS 79.8157 | ETA 02:24:21
Time 00:34:12 | Step 159462 / 850001 | TPS 76.0462 | ETA 02:31:20
Time 00:34:22 | Step 160210 / 850001 | TPS 74.7425 | ETA 02:33:48
Time 00:34:32 | Step 160946 / 850001 | TPS 73.5614 | ETA 02:36:07
Time 00:34:42 | Step 161735 / 850001 | TPS 78.8556 | ETA 02:25:28
Time 00:34:52 | Step 162494 / 850001 | TPS 75.6157 | ETA 02:31:32
Time 00:35:02 | Step 163248 / 850001 | TPS 75.3264 | ETA 02:31:57
Time 00:35:12 | Step 163963 / 850001 | TPS 71.4276 | ETA 02:40:04
Time 00:35:22 | Step 164692 / 850001 | TPS 72.8304 | ETA 02:36:49
Time 00:35:32 | Step 165436 / 850001 | TPS 74.1712 | ETA 02:33:49
Time 00:35:42 | Step 166147 / 850001 | TPS 71.0927 | ETA 02:40:19
Time 00:35:52 | Step 166893 / 850001 | TPS 74.5684 | ETA 02:32:40
Time 00:36:02 | Step 167693 / 850001 | TPS 79.975 | ETA 02:22:11
Time 00:36:12 | Step 168425 / 850001 | TPS 73.1764 | ETA 02:35:14
Time 00:36:23 | Step 169135 / 850001 | TPS 70.8136 | ETA 02:40:14
Time 00:36:33 | Step 169837 / 850001 | TPS 69.6886 | ETA 02:42:40
Time 00:36:43 | Step 170598 / 850001 | TPS 76.0739 | ETA 02:28:50
Time 00:36:53 | Step 171308 / 850001 | TPS 70.8456 | ETA 02:39:39
Time 00:37:03 | Step 171978 / 850001 | TPS 66.7871 | ETA 02:49:12
Time 00:37:13 | Step 172676 / 850001 | TPS 69.535 | ETA 02:42:20
Time 00:37:23 | Step 173405 / 850001 | TPS 72.867 | ETA 02:34:45
Time 00:37:33 | Step 174075 / 850001 | TPS 66.9853 | ETA 02:48:10
Time 00:37:43 | Step 174808 / 850001 | TPS 73.1524 | ETA 02:33:49
Time 00:37:53 | Step 175567 / 850001 | TPS 75.7501 | ETA 02:28:23
Time 00:38:03 | Step 176299 / 850001 | TPS 73.0395 | ETA 02:33:43
Time 00:38:13 | Step 177057 / 850001 | TPS 75.7611 | ETA 02:28:02
Time 00:38:23 | Step 177800 / 850001 | TPS 74.2604 | ETA 02:30:51
Time 00:38:33 | Step 178537 / 850001 | TPS 73.6786 | ETA 02:31:53
Time 00:38:43 | Step 179280 / 850001 | TPS 74.2653 | ETA 02:30:31
Time 00:38:53 | Step 180001 / 850001 | TPS 72.0623 | ETA 02:34:57
Time 00:39:03 | Step 180765 / 850001 | TPS 76.1245 | ETA 02:26:31
Time 00:39:13 | Step 181520 / 850001 | TPS 75.4906 | ETA 02:27:35
Time 00:39:23 | Step 182275 / 850001 | TPS 75.2487 | ETA 02:27:53
Time 00:39:33 | Step 183014 / 850001 | TPS 73.8971 | ETA 02:30:25
Time 00:39:43 | Step 183764 / 850001 | TPS 74.835 | ETA 02:28:22
Time 00:39:53 | Step 184531 / 850001 | TPS 76.6901 | ETA 02:24:37
Time 00:40:03 | Step 185293 / 850001 | TPS 76.0791 | ETA 02:25:37
Time 00:40:13 | Step 186022 / 850001 | TPS 72.5007 | ETA 02:32:38
Time 00:40:23 | Step 186708 / 850001 | TPS 68.5652 | ETA 02:41:13
Time 00:40:33 | Step 187363 / 850001 | TPS 65.0279 | ETA 02:49:50
Time 00:40:43 | Step 188105 / 850001 | TPS 74.1918 | ETA 02:28:41
Time 00:40:53 | Step 188865 / 850001 | TPS 75.9793 | ETA 02:25:01
Time 00:41:03 | Step 189593 / 850001 | TPS 72.7612 | ETA 02:31:16
Time 00:41:13 | Step 190396 / 850001 | TPS 80.2604 | ETA 02:16:58
Time 00:41:23 | Step 191170 / 850001 | TPS 77.2451 | ETA 02:22:09
Time 00:41:33 | Step 191958 / 850001 | TPS 78.4651 | ETA 02:19:46
Time 00:41:43 | Step 192723 / 850001 | TPS 76.4595 | ETA 02:23:16
Time 00:41:53 | Step 193498 / 850001 | TPS 77.2685 | ETA 02:21:36
Time 00:42:03 | Step 194208 / 850001 | TPS 70.8718 | ETA 02:34:13
Time 00:42:13 | Step 194914 / 850001 | TPS 70.556 | ETA 02:34:44
Time 00:42:23 | Step 195615 / 850001 | TPS 69.9378 | ETA 02:35:56
Time 00:42:33 | Step 196329 / 850001 | TPS 71.1763 | ETA 02:33:03
Time 00:42:43 | Step 197074 / 850001 | TPS 73.9684 | ETA 02:27:07
Time 00:42:53 | Step 197798 / 850001 | TPS 72.3722 | ETA 02:30:11
Time 00:43:03 | Step 198565 / 850001 | TPS 76.5131 | ETA 02:21:54
Time 00:43:13 | Step 199299 / 850001 | TPS 73.3029 | ETA 02:27:56
Time 00:43:23 | Step 200022 / 850001 | TPS 72.0532 | ETA 02:30:20
Time 00:43:33 | Step 200816 / 850001 | TPS 79.3141 | ETA 02:16:24
Time 00:43:43 | Step 201559 / 850001 | TPS 74.1506 | ETA 02:25:44
Time 00:43:53 | Step 202297 / 850001 | TPS 73.7354 | ETA 02:26:24
Time 00:44:03 | Step 203015 / 850001 | TPS 71.7663 | ETA 02:30:15
Time 00:44:13 | Step 203807 / 850001 | TPS 79.1705 | ETA 02:16:02
Time 00:44:23 | Step 204599 / 850001 | TPS 79.1856 | ETA 02:15:50
Time 00:44:33 | Step 205392 / 850001 | TPS 78.9614 | ETA 02:16:03
Time 00:44:43 | Step 206192 / 850001 | TPS 79.8187 | ETA 02:14:25
Time 00:44:53 | Step 206985 / 850001 | TPS 79.296 | ETA 02:15:09
Time 00:45:03 | Step 207706 / 850001 | TPS 72.0548 | ETA 02:28:33
Time 00:45:13 | Step 208415 / 850001 | TPS 70.7089 | ETA 02:31:13
Time 00:45:24 | Step 209201 / 850001 | TPS 78.54 | ETA 02:15:58
Time 00:45:34 | Step 210012 / 850001 | TPS 81.0929 | ETA 02:11:32
Time 00:45:44 | Step 210749 / 850001 | TPS 73.3686 | ETA 02:25:12
Time 00:45:54 | Step 211489 / 850001 | TPS 73.7471 | ETA 02:24:18
Time 00:46:04 | Step 212273 / 850001 | TPS 78.0753 | ETA 02:16:08
Time 00:46:14 | Step 213076 / 850001 | TPS 80.118 | ETA 02:12:29
Time 00:46:24 | Step 213846 / 850001 | TPS 76.6991 | ETA 02:18:14
Time 00:46:34 | Step 214594 / 850001 | TPS 74.7547 | ETA 02:21:39
Time 00:46:44 | Step 215335 / 850001 | TPS 73.934 | ETA 02:23:04
Time 00:46:54 | Step 216064 / 850001 | TPS 72.8626 | ETA 02:25:00
Time 00:47:04 | Step 216777 / 850001 | TPS 71.2286 | ETA 02:28:10
Time 00:47:14 | Step 217567 / 850001 | TPS 78.9967 | ETA 02:13:25
Time 00:47:24 | Step 218315 / 850001 | TPS 74.7517 | ETA 02:20:50
Time 00:47:34 | Step 218992 / 850001 | TPS 67.6702 | ETA 02:35:24
Time 00:47:44 | Step 219790 / 850001 | TPS 79.6729 | ETA 02:11:49
Time 00:47:54 | Step 220601 / 850001 | TPS 81.0853 | ETA 02:09:22
Time 00:48:04 | Step 221401 / 850001 | TPS 79.7498 | ETA 02:11:22
Time 00:48:14 | Step 222204 / 850001 | TPS 80.2685 | ETA 02:10:21
Time 00:48:24 | Step 223005 / 850001 | TPS 80.0494 | ETA 02:10:32
Time 00:48:34 | Step 223811 / 850001 | TPS 80.5694 | ETA 02:09:32
Time 00:48:44 | Step 224615 / 850001 | TPS 80.1965 | ETA 02:09:58
Time 00:48:54 | Step 225372 / 850001 | TPS 75.6107 | ETA 02:17:41
Time 00:49:04 | Step 226160 / 850001 | TPS 78.492 | ETA 02:12:27
Time 00:49:14 | Step 226900 / 850001 | TPS 73.7813 | ETA 02:20:45
Time 00:49:24 | Step 227594 / 850001 | TPS 69.3829 | ETA 02:29:30
Time 00:49:34 | Step 228314 / 850001 | TPS 71.9771 | ETA 02:23:57
Time 00:49:44 | Step 229035 / 850001 | TPS 71.865 | ETA 02:24:00
Time 00:49:54 | Step 229784 / 850001 | TPS 74.8759 | ETA 02:18:03
Time 00:50:04 | Step 230508 / 850001 | TPS 72.1919 | ETA 02:23:01
Time 00:50:14 | Step 231221 / 850001 | TPS 71.2931 | ETA 02:24:39
Time 00:50:24 | Step 231943 / 850001 | TPS 72.157 | ETA 02:22:45
Time 00:50:34 | Step 232715 / 850001 | TPS 76.9394 | ETA 02:13:43
Time 00:50:44 | Step 233443 / 850001 | TPS 72.5625 | ETA 02:21:36
Time 00:50:54 | Step 234163 / 850001 | TPS 71.998 | ETA 02:22:33
Time 00:51:04 | Step 234882 / 850001 | TPS 71.8594 | ETA 02:22:40
Time 00:51:14 | Step 235648 / 850001 | TPS 76.566 | ETA 02:13:43
Time 00:51:24 | Step 236362 / 850001 | TPS 71.2261 | ETA 02:23:35
Time 00:51:34 | Step 237100 / 850001 | TPS 73.3729 | ETA 02:19:13
Time 00:51:44 | Step 237859 / 850001 | TPS 75.8767 | ETA 02:14:27
Time 00:51:54 | Step 238580 / 850001 | TPS 72.0539 | ETA 02:21:25
Time 00:52:04 | Step 239353 / 850001 | TPS 77.2499 | ETA 02:11:44
Time 00:52:14 | Step 240065 / 850001 | TPS 71.1794 | ETA 02:22:48
Time 00:52:24 | Step 240812 / 850001 | TPS 74.6768 | ETA 02:15:57
Time 00:52:34 | Step 241550 / 850001 | TPS 73.77 | ETA 02:17:27
Time 00:52:44 | Step 242294 / 850001 | TPS 74.3285 | ETA 02:16:15
Time 00:52:54 | Step 242986 / 850001 | TPS 69.1737 | ETA 02:26:15
Time 00:53:04 | Step 243738 / 850001 | TPS 75.1038 | ETA 02:14:32
Time 00:53:14 | Step 244484 / 850001 | TPS 74.595 | ETA 02:15:17
Time 00:53:24 | Step 245201 / 850001 | TPS 71.4452 | ETA 02:21:05
Time 00:53:34 | Step 245908 / 850001 | TPS 70.5871 | ETA 02:22:38
Time 00:53:44 | Step 246627 / 850001 | TPS 71.568 | ETA 02:20:30
Time 00:53:54 | Step 247344 / 850001 | TPS 71.4543 | ETA 02:20:34
Time 00:54:04 | Step 248084 / 850001 | TPS 73.7114 | ETA 02:16:05
Time 00:54:14 | Step 248795 / 850001 | TPS 71.0585 | ETA 02:21:00
Time 00:54:24 | Step 249543 / 850001 | TPS 74.6704 | ETA 02:14:01
Time 00:54:34 | Step 250286 / 850001 | TPS 74.287 | ETA 02:14:32
Time 00:54:44 | Step 250994 / 850001 | TPS 70.5637 | ETA 02:21:28
Time 00:54:54 | Step 251743 / 850001 | TPS 74.8261 | ETA 02:13:15
Time 00:55:04 | Step 252515 / 850001 | TPS 77.1852 | ETA 02:09:00
Time 00:55:14 | Step 253316 / 850001 | TPS 79.846 | ETA 02:04:32
Time 00:55:24 | Step 254118 / 850001 | TPS 80.1794 | ETA 02:03:51
Time 00:55:34 | Step 254908 / 850001 | TPS 78.9434 | ETA 02:05:38
Time 00:55:44 | Step 255643 / 850001 | TPS 73.4969 | ETA 02:14:46
Time 00:55:54 | Step 256344 / 850001 | TPS 70.0805 | ETA 02:21:11
Time 00:56:05 | Step 257109 / 850001 | TPS 76.3483 | ETA 02:09:25
Time 00:56:15 | Step 257850 / 850001 | TPS 73.8259 | ETA 02:13:40
Time 00:56:25 | Step 258596 / 850001 | TPS 74.5921 | ETA 02:12:08
Time 00:56:35 | Step 259338 / 850001 | TPS 74.1769 | ETA 02:12:42
Time 00:56:45 | Step 260058 / 850001 | TPS 71.9941 | ETA 02:16:34
Time 00:56:55 | Step 260813 / 850001 | TPS 75.4811 | ETA 02:10:05
Time 00:57:05 | Step 261557 / 850001 | TPS 74.3932 | ETA 02:11:49
Time 00:57:15 | Step 262274 / 850001 | TPS 71.6799 | ETA 02:16:39
Time 00:57:25 | Step 263001 / 850001 | TPS 72.6538 | ETA 02:14:39
Time 00:57:35 | Step 263718 / 850001 | TPS 71.6606 | ETA 02:16:21
Time 00:57:45 | Step 264449 / 850001 | TPS 73.0197 | ETA 02:13:39
Time 00:57:55 | Step 265208 / 850001 | TPS 75.7625 | ETA 02:08:38
Time 00:58:05 | Step 265942 / 850001 | TPS 73.3756 | ETA 02:12:39
Time 00:58:15 | Step 266704 / 850001 | TPS 76.1564 | ETA 02:07:39
Time 00:58:25 | Step 267474 / 850001 | TPS 76.9711 | ETA 02:06:08
Time 00:58:35 | Step 268205 / 850001 | TPS 73.0821 | ETA 02:12:40
Time 00:58:45 | Step 268930 / 850001 | TPS 72.4539 | ETA 02:13:39
Time 00:58:55 | Step 269656 / 850001 | TPS 72.1981 | ETA 02:13:58
Time 00:59:05 | Step 270389 / 850001 | TPS 72.9533 | ETA 02:12:24
Time 00:59:15 | Step 271142 / 850001 | TPS 75.0159 | ETA 02:08:36
Time 00:59:25 | Step 271908 / 850001 | TPS 76.2977 | ETA 02:06:16
Time 00:59:35 | Step 272669 / 850001 | TPS 76.0678 | ETA 02:06:29
Time 00:59:45 | Step 273401 / 850001 | TPS 72.8621 | ETA 02:11:53
Time 00:59:55 | Step 274171 / 850001 | TPS 76.8285 | ETA 02:04:55
Time 01:00:05 | Step 274897 / 850001 | TPS 72.3198 | ETA 02:12:32
Time 01:00:15 | Step 275651 / 850001 | TPS 75.3992 | ETA 02:06:57
Time 01:00:25 | Step 276371 / 850001 | TPS 71.9774 | ETA 02:12:49
Time 01:00:35 | Step 277079 / 850001 | TPS 70.7761 | ETA 02:14:54
Time 01:00:45 | Step 277848 / 850001 | TPS 76.8743 | ETA 02:04:02
Time 01:00:55 | Step 278610 / 850001 | TPS 76.1884 | ETA 02:04:59
Time 01:01:05 | Step 279347 / 850001 | TPS 73.6681 | ETA 02:09:06
Time 01:01:15 | Step 280091 / 850001 | TPS 74.3566 | ETA 02:07:44
Time 01:01:25 | Step 280810 / 850001 | TPS 71.8874 | ETA 02:11:57
Time 01:01:35 | Step 281577 / 850001 | TPS 76.44 | ETA 02:03:56
Time 01:01:45 | Step 282342 / 850001 | TPS 76.3516 | ETA 02:03:54
Time 01:01:55 | Step 283073 / 850001 | TPS 73.0628 | ETA 02:09:19
Time 01:02:05 | Step 283777 / 850001 | TPS 70.2761 | ETA 02:14:17
Time 01:02:15 | Step 284529 / 850001 | TPS 75.0034 | ETA 02:05:39
Time 01:02:25 | Step 285308 / 850001 | TPS 77.6203 | ETA 02:01:15
Time 01:02:35 | Step 286036 / 850001 | TPS 72.769 | ETA 02:09:10
Time 01:02:45 | Step 286717 / 850001 | TPS 68.0658 | ETA 02:17:55
Time 01:02:55 | Step 287442 / 850001 | TPS 72.4612 | ETA 02:09:23
Time 01:03:05 | Step 288143 / 850001 | TPS 69.6468 | ETA 02:14:27
Time 01:03:15 | Step 288870 / 850001 | TPS 72.672 | ETA 02:08:41
Time 01:03:25 | Step 289630 / 850001 | TPS 75.7639 | ETA 02:03:16
Time 01:03:35 | Step 290355 / 850001 | TPS 72.2335 | ETA 02:09:07
Time 01:03:45 | Step 291101 / 850001 | TPS 74.4702 | ETA 02:05:05
Time 01:03:55 | Step 291843 / 850001 | TPS 73.8677 | ETA 02:05:56
Time 01:04:05 | Step 292581 / 850001 | TPS 73.7223 | ETA 02:06:01
Time 01:04:15 | Step 293329 / 850001 | TPS 74.6166 | ETA 02:04:20
Time 01:04:25 | Step 294036 / 850001 | TPS 70.6711 | ETA 02:11:06
Time 01:04:35 | Step 294744 / 850001 | TPS 70.7439 | ETA 02:10:48
Time 01:04:45 | Step 295497 / 850001 | TPS 75.0124 | ETA 02:03:12
Time 01:04:55 | Step 296208 / 850001 | TPS 71.0826 | ETA 02:09:50
Time 01:05:05 | Step 296924 / 850001 | TPS 71.5705 | ETA 02:08:47
Time 01:05:15 | Step 297670 / 850001 | TPS 74.4557 | ETA 02:03:38
Time 01:05:25 | Step 298415 / 850001 | TPS 74.1909 | ETA 02:03:54
Time 01:05:35 | Step 299119 / 850001 | TPS 70.3389 | ETA 02:10:31
Time 01:05:45 | Step 299815 / 850001 | TPS 69.3979 | ETA 02:12:07
Time 01:05:56 | Step 300558 / 850001 | TPS 74.1438 | ETA 02:03:30
Time 01:06:06 | Step 301310 / 850001 | TPS 75.1925 | ETA 02:01:37
Time 01:06:16 | Step 302087 / 850001 | TPS 77.6836 | ETA 01:57:33
Time 01:06:26 | Step 302856 / 850001 | TPS 76.7506 | ETA 01:58:48
Time 01:06:36 | Step 303630 / 850001 | TPS 77.3212 | ETA 01:57:46
Time 01:06:46 | Step 304413 / 850001 | TPS 78.2813 | ETA 01:56:09
Time 01:06:56 | Step 305146 / 850001 | TPS 73.2824 | ETA 02:03:55
Time 01:07:06 | Step 305922 / 850001 | TPS 77.2905 | ETA 01:57:19
Time 01:07:16 | Step 306722 / 850001 | TPS 79.7915 | ETA 01:53:28
Time 01:07:26 | Step 307467 / 850001 | TPS 74.4769 | ETA 02:01:24
Time 01:07:36 | Step 308192 / 850001 | TPS 72.3917 | ETA 02:04:44
Time 01:07:46 | Step 308936 / 850001 | TPS 74.3801 | ETA 02:01:14
Time 01:07:56 | Step 309624 / 850001 | TPS 68.7896 | ETA 02:10:55
Time 01:08:06 | Step 310352 / 850001 | TPS 72.7955 | ETA 02:03:33
Time 01:08:16 | Step 311068 / 850001 | TPS 71.5792 | ETA 02:05:29
Time 01:08:26 | Step 311785 / 850001 | TPS 71.6863 | ETA 02:05:07
Time 01:08:36 | Step 312519 / 850001 | TPS 73.3924 | ETA 02:02:03
Time 01:08:46 | Step 313304 / 850001 | TPS 78.4542 | ETA 01:54:00
Time 01:08:56 | Step 314101 / 850001 | TPS 79.3737 | ETA 01:52:31
Time 01:09:06 | Step 314905 / 850001 | TPS 80.357 | ETA 01:50:58
Time 01:09:16 | Step 315620 / 850001 | TPS 71.4958 | ETA 02:04:34
Time 01:09:26 | Step 316353 / 850001 | TPS 73.2676 | ETA 02:01:23
Time 01:09:36 | Step 317048 / 850001 | TPS 69.437 | ETA 02:07:55
Time 01:09:46 | Step 317775 / 850001 | TPS 72.6807 | ETA 02:02:02
Time 01:09:56 | Step 318500 / 850001 | TPS 72.4961 | ETA 02:02:11
Time 01:10:06 | Step 319279 / 850001 | TPS 77.844 | ETA 01:53:37
Time 01:10:16 | Step 320046 / 850001 | TPS 76.694 | ETA 01:55:09
Time 01:10:26 | Step 320856 / 850001 | TPS 80.7481 | ETA 01:49:13
Time 01:10:36 | Step 321607 / 850001 | TPS 75.0585 | ETA 01:57:19
Time 01:10:46 | Step 322328 / 850001 | TPS 72.0685 | ETA 02:02:01
Time 01:10:56 | Step 323058 / 850001 | TPS 72.7887 | ETA 02:00:39
Time 01:11:06 | Step 323787 / 850001 | TPS 72.6431 | ETA 02:00:43
Time 01:11:16 | Step 324579 / 850001 | TPS 78.9395 | ETA 01:50:56
Time 01:11:26 | Step 325282 / 850001 | TPS 70.2765 | ETA 02:04:26
Time 01:11:36 | Step 326072 / 850001 | TPS 78.7459 | ETA 01:50:53
Time 01:11:46 | Step 326843 / 850001 | TPS 76.9144 | ETA 01:53:21
Time 01:11:56 | Step 327635 / 850001 | TPS 79.0501 | ETA 01:50:08
Time 01:12:06 | Step 328429 / 850001 | TPS 79.1678 | ETA 01:49:48
Time 01:12:16 | Step 329237 / 850001 | TPS 80.7807 | ETA 01:47:26
Time 01:12:26 | Step 329993 / 850001 | TPS 75.2492 | ETA 01:55:10
Time 01:12:36 | Step 330753 / 850001 | TPS 75.9713 | ETA 01:53:54
Time 01:12:46 | Step 331525 / 850001 | TPS 77.197 | ETA 01:51:56
Time 01:12:56 | Step 332222 / 850001 | TPS 69.5566 | ETA 02:04:03
Time 01:13:06 | Step 332971 / 850001 | TPS 74.5969 | ETA 01:55:30
Time 01:13:16 | Step 333694 / 850001 | TPS 72.2956 | ETA 01:59:01
Time 01:13:26 | Step 334442 / 850001 | TPS 74.7586 | ETA 01:54:56
Time 01:13:36 | Step 335160 / 850001 | TPS 71.7211 | ETA 01:59:38
Time 01:13:46 | Step 335865 / 850001 | TPS 70.4017 | ETA 02:01:42
Time 01:13:56 | Step 336594 / 850001 | TPS 72.6115 | ETA 01:57:50
Time 01:14:06 | Step 337306 / 850001 | TPS 71.1667 | ETA 02:00:04
Time 01:14:16 | Step 338008 / 850001 | TPS 69.9851 | ETA 02:01:55
Time 01:14:26 | Step 338729 / 850001 | TPS 72.0364 | ETA 01:58:17
Time 01:14:36 | Step 339464 / 850001 | TPS 73.4939 | ETA 01:55:46
Time 01:14:46 | Step 340178 / 850001 | TPS 71.3918 | ETA 01:59:01
Time 01:14:56 | Step 340863 / 850001 | TPS 68.4499 | ETA 02:03:58
Time 01:15:06 | Step 341617 / 850001 | TPS 75.397 | ETA 01:52:22
Time 01:15:16 | Step 342383 / 850001 | TPS 76.5723 | ETA 01:50:29
Time 01:15:26 | Step 343143 / 850001 | TPS 75.6442 | ETA 01:51:40
Time 01:15:36 | Step 343865 / 850001 | TPS 72.1844 | ETA 01:56:51
Time 01:15:46 | Step 344588 / 850001 | TPS 72.2569 | ETA 01:56:34
Time 01:15:56 | Step 345290 / 850001 | TPS 70.193 | ETA 01:59:50
Time 01:16:06 | Step 345992 / 850001 | TPS 70.1642 | ETA 01:59:43
Time 01:16:16 | Step 346702 / 850001 | TPS 70.9922 | ETA 01:58:09
Time 01:16:26 | Step 347450 / 850001 | TPS 74.7313 | ETA 01:52:04
Time 01:16:36 | Step 348151 / 850001 | TPS 69.9677 | ETA 01:59:32
Time 01:16:46 | Step 348862 / 850001 | TPS 71.0688 | ETA 01:57:31
Time 01:16:56 | Step 349578 / 850001 | TPS 71.584 | ETA 01:56:30
Time 01:17:06 | Step 350299 / 850001 | TPS 71.9339 | ETA 01:55:46
Time 01:17:16 | Step 351032 / 850001 | TPS 73.2994 | ETA 01:53:27
Time 01:17:26 | Step 351771 / 850001 | TPS 73.8762 | ETA 01:52:24
Time 01:17:36 | Step 352550 / 850001 | TPS 77.8703 | ETA 01:46:28
Time 01:17:46 | Step 353272 / 850001 | TPS 72.1805 | ETA 01:54:41
Time 01:17:56 | Step 353977 / 850001 | TPS 70.4965 | ETA 01:57:16
Time 01:18:06 | Step 354730 / 850001 | TPS 75.2541 | ETA 01:49:41
Time 01:18:16 | Step 355522 / 850001 | TPS 79.0144 | ETA 01:44:18
Time 01:18:26 | Step 356314 / 850001 | TPS 79.0165 | ETA 01:44:07
Time 01:18:36 | Step 357111 / 850001 | TPS 79.6572 | ETA 01:43:07
Time 01:18:46 | Step 357898 / 850001 | TPS 78.4256 | ETA 01:44:34
Time 01:18:56 | Step 358700 / 850001 | TPS 80.068 | ETA 01:42:16
Time 01:19:06 | Step 359473 / 850001 | TPS 77.0222 | ETA 01:46:08
Time 01:19:16 | Step 360246 / 850001 | TPS 77.1839 | ETA 01:45:45
Time 01:19:26 | Step 361026 / 850001 | TPS 77.9895 | ETA 01:44:29
Time 01:19:36 | Step 361687 / 850001 | TPS 66.0841 | ETA 02:03:09
Time 01:19:47 | Step 362401 / 850001 | TPS 71.2726 | ETA 01:54:01
Time 01:19:57 | Step 363165 / 850001 | TPS 76.3164 | ETA 01:46:19
Time 01:20:07 | Step 363890 / 850001 | TPS 72.4757 | ETA 01:51:47
Time 01:20:17 | Step 364682 / 850001 | TPS 79.1597 | ETA 01:42:10
Time 01:20:27 | Step 365476 / 850001 | TPS 79.1299 | ETA 01:42:03
Time 01:20:37 | Step 366278 / 850001 | TPS 80.1916 | ETA 01:40:32
Time 01:20:47 | Step 367061 / 850001 | TPS 78.036 | ETA 01:43:08
Time 01:20:57 | Step 367793 / 850001 | TPS 72.9781 | ETA 01:50:07
Time 01:21:07 | Step 368561 / 850001 | TPS 76.4641 | ETA 01:44:56
Time 01:21:17 | Step 369308 / 850001 | TPS 74.5279 | ETA 01:47:29
Time 01:21:27 | Step 370004 / 850001 | TPS 69.5932 | ETA 01:54:57
Time 01:21:37 | Step 370737 / 850001 | TPS 73.0654 | ETA 01:49:19
Time 01:21:47 | Step 371447 / 850001 | TPS 70.9665 | ETA 01:52:23
Time 01:21:57 | Step 372191 / 850001 | TPS 74.326 | ETA 01:47:08
Time 01:22:07 | Step 372875 / 850001 | TPS 68.2583 | ETA 01:56:30
Time 01:22:17 | Step 373578 / 850001 | TPS 70.2803 | ETA 01:52:58
Time 01:22:27 | Step 374313 / 850001 | TPS 73.4737 | ETA 01:47:54
Time 01:22:37 | Step 375051 / 850001 | TPS 73.524 | ETA 01:47:39
Time 01:22:47 | Step 375757 / 850001 | TPS 70.5872 | ETA 01:51:58
Time 01:22:57 | Step 376473 / 850001 | TPS 71.599 | ETA 01:50:13
Time 01:23:07 | Step 377244 / 850001 | TPS 76.8855 | ETA 01:42:28
Time 01:23:17 | Step 377942 / 850001 | TPS 69.7728 | ETA 01:52:45
Time 01:23:27 | Step 378708 / 850001 | TPS 76.3773 | ETA 01:42:50
Time 01:23:37 | Step 379470 / 850001 | TPS 76.1528 | ETA 01:42:58
Time 01:23:47 | Step 380191 / 850001 | TPS 71.7854 | ETA 01:49:04
Time 01:23:57 | Step 380906 / 850001 | TPS 71.4341 | ETA 01:49:26
Time 01:24:07 | Step 381643 / 850001 | TPS 73.6715 | ETA 01:45:57
Time 01:24:17 | Step 382344 / 850001 | TPS 70.0771 | ETA 01:51:13
Time 01:24:27 | Step 383100 / 850001 | TPS 75.5748 | ETA 01:42:57
Time 01:24:37 | Step 383824 / 850001 | TPS 72.1634 | ETA 01:47:40
Time 01:24:47 | Step 384581 / 850001 | TPS 75.5313 | ETA 01:42:41
Time 01:24:57 | Step 385335 / 850001 | TPS 75.3808 | ETA 01:42:44
Time 01:25:07 | Step 386071 / 850001 | TPS 73.3126 | ETA 01:45:28
Time 01:25:17 | Step 386808 / 850001 | TPS 73.4191 | ETA 01:45:08
Time 01:25:27 | Step 387566 / 850001 | TPS 75.5372 | ETA 01:42:01
Time 01:25:37 | Step 388349 / 850001 | TPS 77.9444 | ETA 01:38:42
Time 01:25:47 | Step 389079 / 850001 | TPS 72.7849 | ETA 01:45:32
Time 01:25:57 | Step 389765 / 850001 | TPS 68.5932 | ETA 01:51:49
Time 01:26:07 | Step 390508 / 850001 | TPS 73.9738 | ETA 01:43:31
Time 01:26:17 | Step 391249 / 850001 | TPS 73.8855 | ETA 01:43:28
Time 01:26:27 | Step 392009 / 850001 | TPS 75.9513 | ETA 01:40:30
Time 01:26:37 | Step 392731 / 850001 | TPS 72.1588 | ETA 01:45:36
Time 01:26:47 | Step 393429 / 850001 | TPS 69.7136 | ETA 01:49:09
Time 01:26:57 | Step 394229 / 850001 | TPS 79.8437 | ETA 01:35:08
Time 01:27:07 | Step 394973 / 850001 | TPS 74.3657 | ETA 01:41:58
Time 01:27:17 | Step 395681 / 850001 | TPS 70.5424 | ETA 01:47:20
Time 01:27:27 | Step 396418 / 850001 | TPS 73.6731 | ETA 01:42:36
Time 01:27:37 | Step 397136 / 850001 | TPS 71.6013 | ETA 01:45:24
Time 01:27:47 | Step 397817 / 850001 | TPS 68.0183 | ETA 01:50:47
Time 01:27:57 | Step 398549 / 850001 | TPS 72.9281 | ETA 01:43:10
Time 01:28:07 | Step 399243 / 850001 | TPS 69.3714 | ETA 01:48:17
Time 01:28:17 | Step 399965 / 850001 | TPS 72.0225 | ETA 01:44:08
Time 01:28:27 | Step 400665 / 850001 | TPS 69.9206 | ETA 01:47:06
Time 01:28:38 | Step 401393 / 850001 | TPS 72.4971 | ETA 01:43:07
Time 01:28:48 | Step 402140 / 850001 | TPS 74.3746 | ETA 01:40:21
Time 01:28:58 | Step 402860 / 850001 | TPS 71.9605 | ETA 01:43:33
Time 01:29:08 | Step 403617 / 850001 | TPS 75.5678 | ETA 01:38:27
Time 01:29:18 | Step 404354 / 850001 | TPS 73.463 | ETA 01:41:06
Time 01:29:28 | Step 405048 / 850001 | TPS 69.2736 | ETA 01:47:03
Time 01:29:38 | Step 405786 / 850001 | TPS 73.7794 | ETA 01:40:20
Time 01:29:48 | Step 406535 / 850001 | TPS 74.8298 | ETA 01:38:46
Time 01:29:58 | Step 407234 / 850001 | TPS 69.8548 | ETA 01:45:38
Time 01:30:08 | Step 407974 / 850001 | TPS 73.7997 | ETA 01:39:49
Time 01:30:18 | Step 408696 / 850001 | TPS 72.1705 | ETA 01:41:54
Time 01:30:28 | Step 409415 / 850001 | TPS 71.7219 | ETA 01:42:22
Time 01:30:38 | Step 410101 / 850001 | TPS 68.5558 | ETA 01:46:56
Time 01:30:48 | Step 410822 / 850001 | TPS 71.6392 | ETA 01:42:10
Time 01:30:58 | Step 411524 / 850001 | TPS 70.1612 | ETA 01:44:09
Time 01:31:08 | Step 412264 / 850001 | TPS 73.8701 | ETA 01:38:45
Time 01:31:18 | Step 413029 / 850001 | TPS 76.4835 | ETA 01:35:13
Time 01:31:28 | Step 413771 / 850001 | TPS 73.59 | ETA 01:38:47
Time 01:31:38 | Step 414484 / 850001 | TPS 71.271 | ETA 01:41:50
Time 01:31:48 | Step 415265 / 850001 | TPS 77.8736 | ETA 01:33:02
Time 01:31:58 | Step 415977 / 850001 | TPS 71.1894 | ETA 01:41:36
Time 01:32:08 | Step 416701 / 850001 | TPS 72.1588 | ETA 01:40:04
Time 01:32:18 | Step 417426 / 850001 | TPS 72.3023 | ETA 01:39:42
Time 01:32:28 | Step 418161 / 850001 | TPS 73.4869 | ETA 01:37:56
Time 01:32:38 | Step 418901 / 850001 | TPS 73.9878 | ETA 01:37:06
Time 01:32:48 | Step 419650 / 850001 | TPS 74.7444 | ETA 01:35:57
Time 01:32:58 | Step 420435 / 850001 | TPS 78.465 | ETA 01:31:14
Time 01:33:08 | Step 421243 / 850001 | TPS 80.4505 | ETA 01:28:49
Time 01:33:18 | Step 422061 / 850001 | TPS 81.7754 | ETA 01:27:13
Time 01:33:28 | Step 422863 / 850001 | TPS 79.991 | ETA 01:28:59
Time 01:33:38 | Step 423665 / 850001 | TPS 80.1885 | ETA 01:28:36
Time 01:33:48 | Step 424475 / 850001 | TPS 80.9801 | ETA 01:27:34
Time 01:33:58 | Step 425295 / 850001 | TPS 81.9967 | ETA 01:26:19
Time 01:34:08 | Step 426107 / 850001 | TPS 81.1819 | ETA 01:27:01
Time 01:34:18 | Step 426926 / 850001 | TPS 81.8699 | ETA 01:26:07
Time 01:34:28 | Step 427728 / 850001 | TPS 80.1708 | ETA 01:27:47
Time 01:34:38 | Step 428545 / 850001 | TPS 81.3619 | ETA 01:26:20
Time 01:34:48 | Step 429350 / 850001 | TPS 80.4929 | ETA 01:27:05
Time 01:34:58 | Step 430150 / 850001 | TPS 79.9871 | ETA 01:27:28
Time 01:35:08 | Step 430948 / 850001 | TPS 79.7986 | ETA 01:27:31
Time 01:35:18 | Step 431745 / 850001 | TPS 79.6693 | ETA 01:27:29
Time 01:35:28 | Step 432542 / 850001 | TPS 79.5375 | ETA 01:27:28
Time 01:35:38 | Step 433349 / 850001 | TPS 80.671 | ETA 01:26:04
Time 01:35:48 | Step 434132 / 850001 | TPS 78.2914 | ETA 01:28:31
Time 01:35:58 | Step 434937 / 850001 | TPS 80.409 | ETA 01:26:01
Time 01:36:08 | Step 435740 / 850001 | TPS 80.2659 | ETA 01:26:01
Time 01:36:18 | Step 436538 / 850001 | TPS 79.7806 | ETA 01:26:22
Time 01:36:28 | Step 437336 / 850001 | TPS 79.7703 | ETA 01:26:13
Time 01:36:38 | Step 438142 / 850001 | TPS 80.5985 | ETA 01:25:10
Time 01:36:48 | Step 438953 / 850001 | TPS 80.7248 | ETA 01:24:51
Time 01:36:58 | Step 439756 / 850001 | TPS 80.1035 | ETA 01:25:21
Time 01:37:08 | Step 440566 / 850001 | TPS 80.6576 | ETA 01:24:36
Time 01:37:18 | Step 441379 / 850001 | TPS 81.2721 | ETA 01:23:47
Time 01:37:28 | Step 442187 / 850001 | TPS 80.7645 | ETA 01:24:09
Time 01:37:38 | Step 442997 / 850001 | TPS 80.969 | ETA 01:23:46
Time 01:37:48 | Step 443812 / 850001 | TPS 81.4561 | ETA 01:23:06
Time 01:37:58 | Step 444622 / 850001 | TPS 80.9311 | ETA 01:23:28
Time 01:38:08 | Step 445438 / 850001 | TPS 81.5286 | ETA 01:22:42
Time 01:38:18 | Step 446258 / 850001 | TPS 81.9951 | ETA 01:22:03
Time 01:38:28 | Step 447078 / 850001 | TPS 81.986 | ETA 01:21:54
Time 01:38:38 | Step 447901 / 850001 | TPS 82.1784 | ETA 01:21:33
Time 01:38:48 | Step 448708 / 850001 | TPS 80.6696 | ETA 01:22:54
Time 01:38:58 | Step 449515 / 850001 | TPS 80.6707 | ETA 01:22:44
Time 01:39:08 | Step 450328 / 850001 | TPS 81.1956 | ETA 01:22:02
Time 01:39:18 | Step 451136 / 850001 | TPS 80.6712 | ETA 01:22:24
Time 01:39:28 | Step 451924 / 850001 | TPS 78.7681 | ETA 01:24:13
Time 01:39:38 | Step 452715 / 850001 | TPS 79.0725 | ETA 01:23:44
Time 01:39:48 | Step 453522 / 850001 | TPS 80.3433 | ETA 01:22:14
Time 01:39:58 | Step 454332 / 850001 | TPS 80.9932 | ETA 01:21:25
Time 01:40:08 | Step 455124 / 850001 | TPS 79.1937 | ETA 01:23:06
Time 01:40:18 | Step 455929 / 850001 | TPS 80.4925 | ETA 01:21:35
Time 01:40:28 | Step 456737 / 850001 | TPS 80.7787 | ETA 01:21:08
Time 01:40:38 | Step 457540 / 850001 | TPS 80.2909 | ETA 01:21:27
Time 01:40:48 | Step 458342 / 850001 | TPS 80.0508 | ETA 01:21:32
Time 01:40:59 | Step 459150 / 850001 | TPS 80.5128 | ETA 01:20:54
Time 01:41:09 | Step 459966 / 850001 | TPS 81.3507 | ETA 01:19:54
Time 01:41:19 | Step 460785 / 850001 | TPS 81.6994 | ETA 01:19:24
Time 01:41:29 | Step 461601 / 850001 | TPS 81.3619 | ETA 01:19:33
Time 01:41:39 | Step 462421 / 850001 | TPS 81.9949 | ETA 01:18:46
Time 01:41:49 | Step 463236 / 850001 | TPS 81.4906 | ETA 01:19:06
Time 01:41:59 | Step 464060 / 850001 | TPS 82.3933 | ETA 01:18:04
Time 01:42:09 | Step 464863 / 850001 | TPS 80.2266 | ETA 01:20:00
Time 01:42:19 | Step 465674 / 850001 | TPS 81.0652 | ETA 01:19:00
Time 01:42:29 | Step 466496 / 850001 | TPS 82.1744 | ETA 01:17:46
Time 01:42:39 | Step 467315 / 850001 | TPS 81.6454 | ETA 01:18:07
Time 01:42:49 | Step 468122 / 850001 | TPS 80.4 | ETA 01:19:09
Time 01:42:59 | Step 468919 / 850001 | TPS 79.6713 | ETA 01:19:43
Time 01:43:09 | Step 469704 / 850001 | TPS 78.4675 | ETA 01:20:46
Time 01:43:19 | Step 470499 / 850001 | TPS 79.307 | ETA 01:19:45
Time 01:43:29 | Step 471302 / 850001 | TPS 80.2837 | ETA 01:18:37
Time 01:43:39 | Step 472115 / 850001 | TPS 81.2124 | ETA 01:17:33
Time 01:43:49 | Step 472922 / 850001 | TPS 80.4412 | ETA 01:18:07
Time 01:43:59 | Step 473723 / 850001 | TPS 80.019 | ETA 01:18:22
Time 01:44:09 | Step 474523 / 850001 | TPS 79.9901 | ETA 01:18:14
Time 01:44:19 | Step 475335 / 850001 | TPS 81.1497 | ETA 01:16:56
Time 01:44:29 | Step 476141 / 850001 | TPS 80.5802 | ETA 01:17:19
Time 01:44:39 | Step 476950 / 850001 | TPS 80.8958 | ETA 01:16:51
Time 01:44:49 | Step 477755 / 850001 | TPS 80.4857 | ETA 01:17:04
Time 01:44:59 | Step 478569 / 850001 | TPS 81.0956 | ETA 01:16:20
Time 01:45:09 | Step 479389 / 850001 | TPS 81.9541 | ETA 01:15:22
Time 01:45:19 | Step 480199 / 850001 | TPS 80.9635 | ETA 01:16:07
Time 01:45:29 | Step 481015 / 850001 | TPS 81.5789 | ETA 01:15:23
Time 01:45:39 | Step 481844 / 850001 | TPS 82.5995 | ETA 01:14:17
Time 01:45:49 | Step 482664 / 850001 | TPS 81.9898 | ETA 01:14:40
Time 01:45:59 | Step 483482 / 850001 | TPS 81.6402 | ETA 01:14:49
Time 01:46:09 | Step 484285 / 850001 | TPS 80.2728 | ETA 01:15:55
Time 01:46:19 | Step 485083 / 850001 | TPS 79.4407 | ETA 01:16:33
Time 01:46:29 | Step 485878 / 850001 | TPS 79.1722 | ETA 01:16:39
Time 01:46:39 | Step 486678 / 850001 | TPS 79.9597 | ETA 01:15:43
Time 01:46:49 | Step 487469 / 850001 | TPS 78.8766 | ETA 01:16:36
Time 01:46:59 | Step 488263 / 850001 | TPS 79.3837 | ETA 01:15:56
Time 01:47:09 | Step 489059 / 850001 | TPS 79.589 | ETA 01:15:35
Time 01:47:19 | Step 489861 / 850001 | TPS 80.1491 | ETA 01:14:53
Time 01:47:29 | Step 490657 / 850001 | TPS 79.369 | ETA 01:15:27
Time 01:47:39 | Step 491480 / 850001 | TPS 82.2885 | ETA 01:12:36
Time 01:47:49 | Step 492289 / 850001 | TPS 80.8934 | ETA 01:13:42
Time 01:47:59 | Step 493100 / 850001 | TPS 80.7624 | ETA 01:13:39
Time 01:48:09 | Step 493908 / 850001 | TPS 80.4446 | ETA 01:13:46
Time 01:48:19 | Step 494722 / 850001 | TPS 81.3229 | ETA 01:12:48
Time 01:48:29 | Step 495543 / 850001 | TPS 81.8562 | ETA 01:12:10
Time 01:48:39 | Step 496359 / 850001 | TPS 81.5498 | ETA 01:12:16
Time 01:48:49 | Step 497169 / 850001 | TPS 80.9482 | ETA 01:12:38
Time 01:48:59 | Step 497965 / 850001 | TPS 79.5883 | ETA 01:13:43
Time 01:49:09 | Step 498765 / 850001 | TPS 79.9166 | ETA 01:13:15
Time 01:49:19 | Step 499583 / 850001 | TPS 81.7521 | ETA 01:11:26
Time 01:49:29 | Step 500408 / 850001 | TPS 82.3001 | ETA 01:10:47
Time 01:49:39 | Step 501219 / 850001 | TPS 81.0725 | ETA 01:11:42
Time 01:49:49 | Step 502033 / 850001 | TPS 81.2664 | ETA 01:11:21
Time 01:49:59 | Step 502843 / 850001 | TPS 80.8291 | ETA 01:11:34
Time 01:50:09 | Step 503651 / 850001 | TPS 80.6372 | ETA 01:11:35
Time 01:50:19 | Step 504452 / 850001 | TPS 80.0698 | ETA 01:11:55
Time 01:50:29 | Step 505259 / 850001 | TPS 80.3857 | ETA 01:11:28
Time 01:50:39 | Step 506063 / 850001 | TPS 80.0377 | ETA 01:11:37
Time 01:50:49 | Step 506864 / 850001 | TPS 79.9331 | ETA 01:11:32
Time 01:50:59 | Step 507662 / 850001 | TPS 79.7185 | ETA 01:11:34
Time 01:51:09 | Step 508479 / 850001 | TPS 81.5925 | ETA 01:09:45
Time 01:51:19 | Step 509293 / 850001 | TPS 81.0888 | ETA 01:10:01
Time 01:51:29 | Step 510101 / 850001 | TPS 80.694 | ETA 01:10:12
Time 01:51:39 | Step 510915 / 850001 | TPS 81.3786 | ETA 01:09:26
Time 01:51:50 | Step 511715 / 850001 | TPS 79.6621 | ETA 01:10:46
Time 01:52:00 | Step 512543 / 850001 | TPS 82.5582 | ETA 01:08:07
Time 01:52:10 | Step 513356 / 850001 | TPS 81.0735 | ETA 01:09:12
Time 01:52:20 | Step 514164 / 850001 | TPS 80.7176 | ETA 01:09:20
Time 01:52:30 | Step 514980 / 850001 | TPS 81.5394 | ETA 01:08:28
Time 01:52:40 | Step 515789 / 850001 | TPS 80.8999 | ETA 01:08:51
Time 01:52:50 | Step 516582 / 850001 | TPS 79.1605 | ETA 01:10:11
Time 01:53:00 | Step 517398 / 850001 | TPS 81.4477 | ETA 01:08:03
Time 01:53:10 | Step 518205 / 850001 | TPS 80.6773 | ETA 01:08:32
Time 01:53:20 | Step 519017 / 850001 | TPS 81.1705 | ETA 01:07:57
Time 01:53:30 | Step 519830 / 850001 | TPS 81.0261 | ETA 01:07:54
Time 01:53:40 | Step 520657 / 850001 | TPS 82.3965 | ETA 01:06:37
Time 01:53:50 | Step 521465 / 850001 | TPS 80.5845 | ETA 01:07:56
Time 01:54:00 | Step 522270 / 850001 | TPS 80.4384 | ETA 01:07:54
Time 01:54:10 | Step 523069 / 850001 | TPS 79.8503 | ETA 01:08:14
Time 01:54:20 | Step 523875 / 850001 | TPS 80.5902 | ETA 01:07:26
Time 01:54:30 | Step 524672 / 850001 | TPS 79.6813 | ETA 01:08:02
Time 01:54:40 | Step 525468 / 850001 | TPS 79.5921 | ETA 01:07:57
Time 01:54:50 | Step 526247 / 850001 | TPS 77.8516 | ETA 01:09:18
Time 01:55:00 | Step 527043 / 850001 | TPS 79.2346 | ETA 01:07:55
Time 01:55:10 | Step 527838 / 850001 | TPS 79.4732 | ETA 01:07:33
Time 01:55:20 | Step 528624 / 850001 | TPS 78.5605 | ETA 01:08:10
Time 01:55:30 | Step 529421 / 850001 | TPS 79.4883 | ETA 01:07:13
Time 01:55:40 | Step 530224 / 850001 | TPS 80.2841 | ETA 01:06:23
Time 01:55:50 | Step 531025 / 850001 | TPS 80.0623 | ETA 01:06:24
Time 01:56:00 | Step 531820 / 850001 | TPS 79.4919 | ETA 01:06:42
Time 01:56:10 | Step 532622 / 850001 | TPS 79.9009 | ETA 01:06:12
Time 01:56:20 | Step 533434 / 850001 | TPS 81.0014 | ETA 01:05:08
Time 01:56:30 | Step 534239 / 850001 | TPS 80.475 | ETA 01:05:23
Time 01:56:40 | Step 535047 / 850001 | TPS 80.7822 | ETA 01:04:58
Time 01:56:50 | Step 535865 / 850001 | TPS 81.5242 | ETA 01:04:13
Time 01:57:00 | Step 536676 / 850001 | TPS 81.0683 | ETA 01:04:24
Time 01:57:10 | Step 537486 / 850001 | TPS 80.9828 | ETA 01:04:19
Time 01:57:20 | Step 538301 / 850001 | TPS 81.4566 | ETA 01:03:46
Time 01:57:30 | Step 539113 / 850001 | TPS 81.1999 | ETA 01:03:48
Time 01:57:40 | Step 539922 / 850001 | TPS 80.5036 | ETA 01:04:11
Time 01:57:50 | Step 540726 / 850001 | TPS 80.3778 | ETA 01:04:07
Time 01:58:00 | Step 541521 / 850001 | TPS 79.2878 | ETA 01:04:50
Time 01:58:10 | Step 542323 / 850001 | TPS 80.1489 | ETA 01:03:58
Time 01:58:20 | Step 543116 / 850001 | TPS 79.2707 | ETA 01:04:31
Time 01:58:30 | Step 543932 / 850001 | TPS 81.5559 | ETA 01:02:32
Time 01:58:40 | Step 544740 / 850001 | TPS 80.4478 | ETA 01:03:14
Time 01:58:50 | Step 545543 / 850001 | TPS 80.2849 | ETA 01:03:12
Time 01:59:00 | Step 546348 / 850001 | TPS 80.3219 | ETA 01:03:00
Time 01:59:10 | Step 547148 / 850001 | TPS 79.7658 | ETA 01:03:16
Time 01:59:20 | Step 547948 / 850001 | TPS 79.9717 | ETA 01:02:56
Time 01:59:30 | Step 548760 / 850001 | TPS 81.1658 | ETA 01:01:51
Time 01:59:40 | Step 549553 / 850001 | TPS 79.2603 | ETA 01:03:10
Time 01:59:50 | Step 550349 / 850001 | TPS 79.3811 | ETA 01:02:54
Time 02:00:00 | Step 551146 / 850001 | TPS 79.6609 | ETA 01:02:31
Time 02:00:10 | Step 551945 / 850001 | TPS 79.8856 | ETA 01:02:11
Time 02:00:20 | Step 552744 / 850001 | TPS 79.8501 | ETA 01:02:02
Time 02:00:30 | Step 553549 / 850001 | TPS 80.4995 | ETA 01:01:22
Time 02:00:40 | Step 554351 / 850001 | TPS 80.1838 | ETA 01:01:27
Time 02:00:50 | Step 555150 / 850001 | TPS 79.7701 | ETA 01:01:36
Time 02:01:00 | Step 555961 / 850001 | TPS 81.0994 | ETA 01:00:25
Time 02:01:10 | Step 556765 / 850001 | TPS 80.3235 | ETA 01:00:50
Time 02:01:20 | Step 557565 / 850001 | TPS 79.7729 | ETA 01:01:05
Time 02:01:30 | Step 558371 / 850001 | TPS 80.5614 | ETA 01:00:19
Time 02:01:40 | Step 559171 / 850001 | TPS 79.6886 | ETA 01:00:49
Time 02:01:50 | Step 559984 / 850001 | TPS 81.258 | ETA 00:59:29
Time 02:02:00 | Step 560786 / 850001 | TPS 80.1984 | ETA 01:00:06
Time 02:02:10 | Step 561589 / 850001 | TPS 80.1834 | ETA 00:59:56
Time 02:02:20 | Step 562393 / 850001 | TPS 80.3532 | ETA 00:59:39
Time 02:02:30 | Step 563201 / 850001 | TPS 80.7553 | ETA 00:59:11
Time 02:02:40 | Step 564008 / 850001 | TPS 80.5693 | ETA 00:59:09
Time 02:02:50 | Step 564828 / 850001 | TPS 81.8118 | ETA 00:58:05
Time 02:03:00 | Step 565636 / 850001 | TPS 80.7278 | ETA 00:58:42
Time 02:03:10 | Step 566452 / 850001 | TPS 81.275 | ETA 00:58:08
Time 02:03:20 | Step 567258 / 850001 | TPS 80.5168 | ETA 00:58:31
Time 02:03:30 | Step 568075 / 850001 | TPS 81.671 | ETA 00:57:31
Time 02:03:40 | Step 568872 / 850001 | TPS 79.6748 | ETA 00:58:48
Time 02:03:50 | Step 569678 / 850001 | TPS 80.5975 | ETA 00:57:58
Time 02:04:00 | Step 570480 / 850001 | TPS 80.1752 | ETA 00:58:06
Time 02:04:10 | Step 571287 / 850001 | TPS 80.6694 | ETA 00:57:35
Time 02:04:20 | Step 572093 / 850001 | TPS 80.5796 | ETA 00:57:28
Time 02:04:30 | Step 572907 / 850001 | TPS 81.2675 | ETA 00:56:49
Time 02:04:40 | Step 573715 / 850001 | TPS 80.5925 | ETA 00:57:08
Time 02:04:50 | Step 574521 / 850001 | TPS 80.5351 | ETA 00:57:00
Time 02:05:01 | Step 575330 / 850001 | TPS 80.7696 | ETA 00:56:40
Time 02:05:11 | Step 576140 / 850001 | TPS 80.966 | ETA 00:56:22
Time 02:05:21 | Step 576948 / 850001 | TPS 80.7579 | ETA 00:56:21
Time 02:05:31 | Step 577756 / 850001 | TPS 80.7613 | ETA 00:56:10
Time 02:05:41 | Step 578554 / 850001 | TPS 79.7668 | ETA 00:56:43
Time 02:05:51 | Step 579352 / 850001 | TPS 79.6878 | ETA 00:56:36
Time 02:06:01 | Step 580157 / 850001 | TPS 80.3943 | ETA 00:55:56
Time 02:06:11 | Step 580958 / 850001 | TPS 80.0566 | ETA 00:56:00
Time 02:06:21 | Step 581763 / 850001 | TPS 80.4747 | ETA 00:55:33
Time 02:06:31 | Step 582573 / 850001 | TPS 80.972 | ETA 00:55:02
Time 02:06:41 | Step 583316 / 850001 | TPS 74.273 | ETA 00:59:50
Time 02:06:51 | Step 584080 / 850001 | TPS 76.0895 | ETA 00:58:14
Time 02:07:01 | Step 584735 / 850001 | TPS 65.2292 | ETA 01:07:46
Time 02:07:11 | Step 585484 / 850001 | TPS 74.8705 | ETA 00:58:52
Time 02:07:21 | Step 586150 / 850001 | TPS 66.0173 | ETA 01:06:36
Time 02:07:31 | Step 586864 / 850001 | TPS 71.2712 | ETA 01:01:32
Time 02:07:41 | Step 587515 / 850001 | TPS 64.9743 | ETA 01:07:19
Time 02:07:51 | Step 588251 / 850001 | TPS 73.4855 | ETA 00:59:21
Time 02:08:01 | Step 588919 / 850001 | TPS 66.7686 | ETA 01:05:10
Time 02:08:11 | Step 589622 / 850001 | TPS 70.1368 | ETA 01:01:52
Time 02:08:21 | Step 590347 / 850001 | TPS 72.1534 | ETA 00:59:58
Time 02:08:31 | Step 591022 / 850001 | TPS 67.4494 | ETA 01:03:59
Time 02:08:41 | Step 591776 / 850001 | TPS 75.3994 | ETA 00:57:04
Time 02:08:51 | Step 592547 / 850001 | TPS 77.063 | ETA 00:55:40
Time 02:09:01 | Step 593257 / 850001 | TPS 70.6752 | ETA 01:00:32
Time 02:09:11 | Step 594008 / 850001 | TPS 75.0502 | ETA 00:56:50
Time 02:09:21 | Step 594712 / 850001 | TPS 70.397 | ETA 01:00:26
Time 02:09:31 | Step 595500 / 850001 | TPS 78.7326 | ETA 00:53:52
Time 02:09:41 | Step 596307 / 850001 | TPS 80.4321 | ETA 00:52:34
Time 02:09:51 | Step 597108 / 850001 | TPS 79.779 | ETA 00:52:49
Time 02:10:01 | Step 597901 / 850001 | TPS 79.1999 | ETA 00:53:03
Time 02:10:11 | Step 598708 / 850001 | TPS 80.3639 | ETA 00:52:06
Time 02:10:21 | Step 599494 / 850001 | TPS 78.5749 | ETA 00:53:08
Time 02:10:31 | Step 600295 / 850001 | TPS 79.8687 | ETA 00:52:06
Time 02:10:41 | Step 601029 / 850001 | TPS 73.3315 | ETA 00:56:35
Time 02:10:51 | Step 601759 / 850001 | TPS 72.4439 | ETA 00:57:06
Time 02:11:01 | Step 602445 / 850001 | TPS 68.4565 | ETA 01:00:16
Time 02:11:11 | Step 603152 / 850001 | TPS 70.6944 | ETA 00:58:11
Time 02:11:21 | Step 603897 / 850001 | TPS 74.4886 | ETA 00:55:03
Time 02:11:31 | Step 604632 / 850001 | TPS 73.4543 | ETA 00:55:40
Time 02:11:41 | Step 605365 / 850001 | TPS 73.0961 | ETA 00:55:46
Time 02:11:51 | Step 606057 / 850001 | TPS 69.142 | ETA 00:58:48
Time 02:12:01 | Step 606822 / 850001 | TPS 76.3112 | ETA 00:53:06
Time 02:12:11 | Step 607602 / 850001 | TPS 77.9997 | ETA 00:51:47
Time 02:12:21 | Step 608399 / 850001 | TPS 79.3831 | ETA 00:50:43
Time 02:12:31 | Step 609197 / 850001 | TPS 79.6475 | ETA 00:50:23
Time 02:12:41 | Step 610001 / 850001 | TPS 80.319 | ETA 00:49:48
Time 02:12:51 | Step 610821 / 850001 | TPS 81.9801 | ETA 00:48:37
Time 02:13:01 | Step 611623 / 850001 | TPS 80.0034 | ETA 00:49:39
Time 02:13:11 | Step 612429 / 850001 | TPS 80.504 | ETA 00:49:11
Time 02:13:21 | Step 613234 / 850001 | TPS 80.4607 | ETA 00:49:02
Time 02:13:31 | Step 614054 / 850001 | TPS 81.9668 | ETA 00:47:58
Time 02:13:41 | Step 614858 / 850001 | TPS 80.3051 | ETA 00:48:48
Time 02:13:51 | Step 615657 / 850001 | TPS 79.5569 | ETA 00:49:05
Time 02:14:01 | Step 616456 / 850001 | TPS 79.7833 | ETA 00:48:47
Time 02:14:12 | Step 617262 / 850001 | TPS 80.3766 | ETA 00:48:15
Time 02:14:22 | Step 618063 / 850001 | TPS 79.9518 | ETA 00:48:20
Time 02:14:32 | Step 618878 / 850001 | TPS 81.4375 | ETA 00:47:18
Time 02:14:42 | Step 619690 / 850001 | TPS 81.1607 | ETA 00:47:17
Time 02:14:52 | Step 620501 / 850001 | TPS 80.8083 | ETA 00:47:20
Time 02:15:02 | Step 621303 / 850001 | TPS 80.1495 | ETA 00:47:33
Time 02:15:12 | Step 622117 / 850001 | TPS 81.3881 | ETA 00:46:39
Time 02:15:22 | Step 622920 / 850001 | TPS 80.2611 | ETA 00:47:09
Time 02:15:32 | Step 623723 / 850001 | TPS 80.2835 | ETA 00:46:58
Time 02:15:42 | Step 624533 / 850001 | TPS 80.9711 | ETA 00:46:24
Time 02:15:52 | Step 625343 / 850001 | TPS 80.8718 | ETA 00:46:17
Time 02:16:02 | Step 626150 / 850001 | TPS 80.4807 | ETA 00:46:21
Time 02:16:12 | Step 626965 / 850001 | TPS 81.4818 | ETA 00:45:37
Time 02:16:22 | Step 627772 / 850001 | TPS 80.3493 | ETA 00:46:05
Time 02:16:32 | Step 628577 / 850001 | TPS 80.416 | ETA 00:45:53
Time 02:16:42 | Step 629386 / 850001 | TPS 80.8702 | ETA 00:45:28
Time 02:16:52 | Step 630195 / 850001 | TPS 80.8859 | ETA 00:45:17
Time 02:17:02 | Step 631000 / 850001 | TPS 80.4966 | ETA 00:45:20
Time 02:17:12 | Step 631801 / 850001 | TPS 79.9503 | ETA 00:45:29
Time 02:17:22 | Step 632608 / 850001 | TPS 80.5684 | ETA 00:44:58
Time 02:17:32 | Step 633413 / 850001 | TPS 80.456 | ETA 00:44:52
Time 02:17:42 | Step 634215 / 850001 | TPS 79.926 | ETA 00:44:59
Time 02:17:52 | Step 635015 / 850001 | TPS 79.8886 | ETA 00:44:51
Time 02:18:02 | Step 635819 / 850001 | TPS 80.3616 | ETA 00:44:25
Time 02:18:12 | Step 636614 / 850001 | TPS 79.4611 | ETA 00:44:45
Time 02:18:22 | Step 637415 / 850001 | TPS 79.7744 | ETA 00:44:24
Time 02:18:32 | Step 638217 / 850001 | TPS 79.9702 | ETA 00:44:08
Time 02:18:42 | Step 639015 / 850001 | TPS 79.6304 | ETA 00:44:09
Time 02:18:52 | Step 639830 / 850001 | TPS 81.4567 | ETA 00:43:00
Time 02:19:02 | Step 640643 / 850001 | TPS 80.9593 | ETA 00:43:05
Time 02:19:12 | Step 641446 / 850001 | TPS 80.2569 | ETA 00:43:18
Time 02:19:22 | Step 642254 / 850001 | TPS 80.7991 | ETA 00:42:51
Time 02:19:32 | Step 643052 / 850001 | TPS 79.7648 | ETA 00:43:14
Time 02:19:42 | Step 643857 / 850001 | TPS 80.4884 | ETA 00:42:41
Time 02:19:52 | Step 644669 / 850001 | TPS 81.1671 | ETA 00:42:09
Time 02:20:02 | Step 645480 / 850001 | TPS 81.06 | ETA 00:42:03
Time 02:20:12 | Step 646275 / 850001 | TPS 79.4805 | ETA 00:42:43
Time 02:20:22 | Step 647070 / 850001 | TPS 79.4957 | ETA 00:42:32
Time 02:20:32 | Step 647872 / 850001 | TPS 79.9618 | ETA 00:42:07
Time 02:20:42 | Step 648677 / 850001 | TPS 80.4617 | ETA 00:41:42
Time 02:20:52 | Step 649479 / 850001 | TPS 79.8908 | ETA 00:41:49
Time 02:21:02 | Step 650286 / 850001 | TPS 80.6508 | ETA 00:41:16
Time 02:21:12 | Step 651100 / 850001 | TPS 81.0624 | ETA 00:40:53
Time 02:21:22 | Step 651916 / 850001 | TPS 81.2325 | ETA 00:40:38
Time 02:21:32 | Step 652728 / 850001 | TPS 80.8889 | ETA 00:40:38
Time 02:21:42 | Step 653534 / 850001 | TPS 80.5859 | ETA 00:40:37
Time 02:21:52 | Step 654334 / 850001 | TPS 79.9955 | ETA 00:40:45
Time 02:22:02 | Step 655140 / 850001 | TPS 80.5821 | ETA 00:40:18
Time 02:22:12 | Step 655928 / 850001 | TPS 78.7659 | ETA 00:41:03
Time 02:22:22 | Step 656729 / 850001 | TPS 79.9141 | ETA 00:40:18
Time 02:22:32 | Step 657543 / 850001 | TPS 81.1329 | ETA 00:39:32
Time 02:22:42 | Step 658358 / 850001 | TPS 81.4564 | ETA 00:39:12
Time 02:22:52 | Step 659150 / 850001 | TPS 79.1509 | ETA 00:40:11
Time 02:23:02 | Step 659947 / 850001 | TPS 79.6588 | ETA 00:39:45
Time 02:23:12 | Step 660749 / 850001 | TPS 80.1953 | ETA 00:39:19
Time 02:23:22 | Step 661542 / 850001 | TPS 79.1619 | ETA 00:39:40
Time 02:23:32 | Step 662339 / 850001 | TPS 79.6867 | ETA 00:39:14
Time 02:23:42 | Step 663137 / 850001 | TPS 79.5348 | ETA 00:39:09
Time 02:23:52 | Step 663934 / 850001 | TPS 79.6131 | ETA 00:38:57
Time 02:24:02 | Step 664740 / 850001 | TPS 80.5658 | ETA 00:38:19
Time 02:24:12 | Step 665545 / 850001 | TPS 80.3254 | ETA 00:38:16
Time 02:24:22 | Step 666349 / 850001 | TPS 80.3931 | ETA 00:38:04
Time 02:24:32 | Step 667144 / 850001 | TPS 79.4827 | ETA 00:38:20
Time 02:24:42 | Step 667924 / 850001 | TPS 77.9826 | ETA 00:38:54
Time 02:24:52 | Step 668730 / 850001 | TPS 80.3749 | ETA 00:37:35
Time 02:25:02 | Step 669529 / 850001 | TPS 79.8563 | ETA 00:37:39
Time 02:25:12 | Step 670323 / 850001 | TPS 79.381 | ETA 00:37:43
Time 02:25:22 | Step 671107 / 850001 | TPS 78.3262 | ETA 00:38:03
Time 02:25:32 | Step 671907 / 850001 | TPS 79.9728 | ETA 00:37:06
Time 02:25:42 | Step 672684 / 850001 | TPS 77.6668 | ETA 00:38:03
Time 02:25:52 | Step 673465 / 850001 | TPS 78.0439 | ETA 00:37:42
Time 02:26:02 | Step 674256 / 850001 | TPS 79.0287 | ETA 00:37:03
Time 02:26:12 | Step 675057 / 850001 | TPS 79.8232 | ETA 00:36:31
Time 02:26:22 | Step 675858 / 850001 | TPS 79.8845 | ETA 00:36:19
Time 02:26:32 | Step 676663 / 850001 | TPS 80.4204 | ETA 00:35:55
Time 02:26:43 | Step 677473 / 850001 | TPS 80.7148 | ETA 00:35:37
Time 02:26:53 | Step 678277 / 850001 | TPS 80.1771 | ETA 00:35:41
Time 02:27:03 | Step 679081 / 850001 | TPS 80.3512 | ETA 00:35:27
Time 02:27:13 | Step 679893 / 850001 | TPS 81.1292 | ETA 00:34:56
Time 02:27:23 | Step 680713 / 850001 | TPS 81.9915 | ETA 00:34:24
Time 02:27:33 | Step 681528 / 850001 | TPS 81.1668 | ETA 00:34:35
Time 02:27:43 | Step 682337 / 850001 | TPS 80.8171 | ETA 00:34:34
Time 02:27:53 | Step 683153 / 850001 | TPS 81.5663 | ETA 00:34:05
Time 02:28:03 | Step 683961 / 850001 | TPS 80.7506 | ETA 00:34:16
Time 02:28:13 | Step 684764 / 850001 | TPS 80.2261 | ETA 00:34:19
Time 02:28:23 | Step 685571 / 850001 | TPS 80.5148 | ETA 00:34:02
Time 02:28:33 | Step 686382 / 850001 | TPS 81.0836 | ETA 00:33:37
Time 02:28:43 | Step 687188 / 850001 | TPS 80.5755 | ETA 00:33:40
Time 02:28:53 | Step 688000 / 850001 | TPS 81.1681 | ETA 00:33:15
Time 02:29:03 | Step 688801 / 850001 | TPS 79.808 | ETA 00:33:39
Time 02:29:13 | Step 689608 / 850001 | TPS 80.4571 | ETA 00:33:13
Time 02:29:23 | Step 690415 / 850001 | TPS 80.6284 | ETA 00:32:59
Time 02:29:33 | Step 691222 / 850001 | TPS 80.6681 | ETA 00:32:48
Time 02:29:43 | Step 692030 / 850001 | TPS 80.6121 | ETA 00:32:39
Time 02:29:53 | Step 692829 / 850001 | TPS 79.8385 | ETA 00:32:48
Time 02:30:03 | Step 693651 / 850001 | TPS 82.0008 | ETA 00:31:46
Time 02:30:13 | Step 694457 / 850001 | TPS 80.2812 | ETA 00:32:17
Time 02:30:23 | Step 695250 / 850001 | TPS 79.1877 | ETA 00:32:34
Time 02:30:33 | Step 696050 / 850001 | TPS 79.9408 | ETA 00:32:05
Time 02:30:43 | Step 696852 / 850001 | TPS 80.1684 | ETA 00:31:50
Time 02:30:53 | Step 697643 / 850001 | TPS 78.947 | ETA 00:32:09
Time 02:31:03 | Step 698436 / 850001 | TPS 79.2691 | ETA 00:31:52
Time 02:31:13 | Step 699231 / 850001 | TPS 79.4865 | ETA 00:31:36
Time 02:31:23 | Step 700023 / 850001 | TPS 79.1764 | ETA 00:31:34
Time 02:31:33 | Step 700814 / 850001 | TPS 79.0516 | ETA 00:31:27
Time 02:31:43 | Step 701630 / 850001 | TPS 81.3532 | ETA 00:30:23
Time 02:31:53 | Step 702446 / 850001 | TPS 81.3089 | ETA 00:30:14
Time 02:32:03 | Step 703257 / 850001 | TPS 80.7624 | ETA 00:30:16
Time 02:32:13 | Step 704062 / 850001 | TPS 80.4848 | ETA 00:30:13
Time 02:32:23 | Step 704867 / 850001 | TPS 80.4646 | ETA 00:30:03
Time 02:32:33 | Step 705677 / 850001 | TPS 80.8601 | ETA 00:29:44
Time 02:32:43 | Step 706490 / 850001 | TPS 80.9975 | ETA 00:29:31
Time 02:32:53 | Step 707282 / 850001 | TPS 79.1829 | ETA 00:30:02
Time 02:33:03 | Step 708086 / 850001 | TPS 80.3541 | ETA 00:29:26
Time 02:33:13 | Step 708894 / 850001 | TPS 80.4972 | ETA 00:29:12
Time 02:33:23 | Step 709714 / 850001 | TPS 81.97 | ETA 00:28:31
Time 02:33:33 | Step 710518 / 850001 | TPS 80.3807 | ETA 00:28:55
Time 02:33:43 | Step 711315 / 850001 | TPS 79.444 | ETA 00:29:05
Time 02:33:53 | Step 712129 / 850001 | TPS 81.1532 | ETA 00:28:18
Time 02:34:03 | Step 712936 / 850001 | TPS 80.6114 | ETA 00:28:20
Time 02:34:13 | Step 713747 / 850001 | TPS 80.8745 | ETA 00:28:04
Time 02:34:23 | Step 714551 / 850001 | TPS 80.1924 | ETA 00:28:09
Time 02:34:33 | Step 715372 / 850001 | TPS 82.036 | ETA 00:27:21
Time 02:34:43 | Step 716170 / 850001 | TPS 79.4601 | ETA 00:28:04
Time 02:34:53 | Step 716981 / 850001 | TPS 81.0645 | ETA 00:27:20
Time 02:35:03 | Step 717790 / 850001 | TPS 80.5414 | ETA 00:27:21
Time 02:35:13 | Step 718593 / 850001 | TPS 80.2318 | ETA 00:27:17
Time 02:35:23 | Step 719400 / 850001 | TPS 80.3416 | ETA 00:27:05
Time 02:35:33 | Step 720210 / 850001 | TPS 80.995 | ETA 00:26:42
Time 02:35:43 | Step 721015 / 850001 | TPS 80.424 | ETA 00:26:43
Time 02:35:53 | Step 721822 / 850001 | TPS 80.6938 | ETA 00:26:28
Time 02:36:03 | Step 722640 / 850001 | TPS 81.7529 | ETA 00:25:57
Time 02:36:13 | Step 723449 / 850001 | TPS 80.6263 | ETA 00:26:09
Time 02:36:23 | Step 724272 / 850001 | TPS 82.2971 | ETA 00:25:27
Time 02:36:33 | Step 725091 / 850001 | TPS 81.8914 | ETA 00:25:25
Time 02:36:43 | Step 725905 / 850001 | TPS 81.3604 | ETA 00:25:25
Time 02:36:53 | Step 726726 / 850001 | TPS 82.0555 | ETA 00:25:02
Time 02:37:03 | Step 727542 / 850001 | TPS 81.5499 | ETA 00:25:01
Time 02:37:13 | Step 728350 / 850001 | TPS 80.5062 | ETA 00:25:11
Time 02:37:24 | Step 729163 / 850001 | TPS 81.1613 | ETA 00:24:48
Time 02:37:34 | Step 729975 / 850001 | TPS 81.1864 | ETA 00:24:38
Time 02:37:44 | Step 730777 / 850001 | TPS 80.1543 | ETA 00:24:47
Time 02:37:54 | Step 731585 / 850001 | TPS 80.7118 | ETA 00:24:27
Time 02:38:04 | Step 732398 / 850001 | TPS 81.0289 | ETA 00:24:11
Time 02:38:14 | Step 733208 / 850001 | TPS 80.7006 | ETA 00:24:07
Time 02:38:24 | Step 734013 / 850001 | TPS 80.4956 | ETA 00:24:00
Time 02:38:34 | Step 734816 / 850001 | TPS 80.281 | ETA 00:23:54
Time 02:38:44 | Step 735622 / 850001 | TPS 80.4245 | ETA 00:23:42
Time 02:38:54 | Step 736437 / 850001 | TPS 81.4952 | ETA 00:23:13
Time 02:39:04 | Step 737250 / 850001 | TPS 81.2702 | ETA 00:23:07
Time 02:39:14 | Step 738059 / 850001 | TPS 80.8886 | ETA 00:23:03
Time 02:39:24 | Step 738857 / 850001 | TPS 79.77 | ETA 00:23:13
Time 02:39:34 | Step 739645 / 850001 | TPS 78.7523 | ETA 00:23:21
Time 02:39:44 | Step 740450 / 850001 | TPS 80.4724 | ETA 00:22:41
Time 02:39:54 | Step 741254 / 850001 | TPS 80.3641 | ETA 00:22:33
Time 02:40:04 | Step 742052 / 850001 | TPS 79.7733 | ETA 00:22:33
Time 02:40:14 | Step 742846 / 850001 | TPS 79.3598 | ETA 00:22:30
Time 02:40:24 | Step 743639 / 850001 | TPS 79.2529 | ETA 00:22:22
Time 02:40:34 | Step 744438 / 850001 | TPS 79.6039 | ETA 00:22:06
Time 02:40:44 | Step 745227 / 850001 | TPS 78.8958 | ETA 00:22:08
Time 02:40:54 | Step 746027 / 850001 | TPS 79.9856 | ETA 00:21:39
Time 02:41:04 | Step 746825 / 850001 | TPS 79.7847 | ETA 00:21:33
Time 02:41:14 | Step 747625 / 850001 | TPS 79.977 | ETA 00:21:20
Time 02:41:24 | Step 748424 / 850001 | TPS 79.71 | ETA 00:21:14
Time 02:41:34 | Step 749222 / 850001 | TPS 79.5292 | ETA 00:21:07
Time 02:41:44 | Step 750018 / 850001 | TPS 79.5912 | ETA 00:20:56
Time 02:41:54 | Step 750822 / 850001 | TPS 80.3006 | ETA 00:20:35
Time 02:42:04 | Step 751618 / 850001 | TPS 79.5942 | ETA 00:20:36
Time 02:42:14 | Step 752422 / 850001 | TPS 80.1429 | ETA 00:20:17
Time 02:42:24 | Step 753228 / 850001 | TPS 80.55 | ETA 00:20:01
Time 02:42:34 | Step 754034 / 850001 | TPS 80.5482 | ETA 00:19:51
Time 02:42:44 | Step 754829 / 850001 | TPS 79.4902 | ETA 00:19:57
Time 02:42:54 | Step 755628 / 850001 | TPS 79.87 | ETA 00:19:41
Time 02:43:04 | Step 756429 / 850001 | TPS 79.8361 | ETA 00:19:32
Time 02:43:14 | Step 757225 / 850001 | TPS 79.578 | ETA 00:19:25
Time 02:43:24 | Step 758029 / 850001 | TPS 80.3888 | ETA 00:19:04
Time 02:43:34 | Step 758823 / 850001 | TPS 79.3312 | ETA 00:19:09
Time 02:43:44 | Step 759625 / 850001 | TPS 80.1552 | ETA 00:18:47
Time 02:43:54 | Step 760423 / 850001 | TPS 79.7723 | ETA 00:18:42
Time 02:44:04 | Step 761235 / 850001 | TPS 81.1462 | ETA 00:18:13
Time 02:44:14 | Step 762037 / 850001 | TPS 79.949 | ETA 00:18:20
Time 02:44:24 | Step 762836 / 850001 | TPS 79.7202 | ETA 00:18:13
Time 02:44:34 | Step 763630 / 850001 | TPS 79.3459 | ETA 00:18:08
Time 02:44:44 | Step 764408 / 850001 | TPS 77.5497 | ETA 00:18:23
Time 02:44:54 | Step 765205 / 850001 | TPS 79.6521 | ETA 00:17:44
Time 02:45:04 | Step 766002 / 850001 | TPS 79.6792 | ETA 00:17:34
Time 02:45:14 | Step 766801 / 850001 | TPS 79.5227 | ETA 00:17:26
Time 02:45:24 | Step 767600 / 850001 | TPS 79.8676 | ETA 00:17:11
Time 02:45:34 | Step 768397 / 850001 | TPS 79.4322 | ETA 00:17:07
Time 02:45:44 | Step 769203 / 850001 | TPS 80.5516 | ETA 00:16:43
Time 02:45:54 | Step 770008 / 850001 | TPS 80.483 | ETA 00:16:33
Time 02:46:04 | Step 770817 / 850001 | TPS 80.8945 | ETA 00:16:18
Time 02:46:14 | Step 771615 / 850001 | TPS 79.7457 | ETA 00:16:22
Time 02:46:24 | Step 772429 / 850001 | TPS 81.3917 | ETA 00:15:53
Time 02:46:34 | Step 773231 / 850001 | TPS 80.1527 | ETA 00:15:57
Time 02:46:44 | Step 774038 / 850001 | TPS 80.6929 | ETA 00:15:41
Time 02:46:54 | Step 774843 / 850001 | TPS 80.4568 | ETA 00:15:34
Time 02:47:04 | Step 775666 / 850001 | TPS 82.0408 | ETA 00:15:06
Time 02:47:14 | Step 776477 / 850001 | TPS 81.0622 | ETA 00:15:07
Time 02:47:24 | Step 777284 / 850001 | TPS 80.3403 | ETA 00:15:05
Time 02:47:34 | Step 778101 / 850001 | TPS 81.5951 | ETA 00:14:41
Time 02:47:44 | Step 778923 / 850001 | TPS 81.9568 | ETA 00:14:27
Time 02:47:54 | Step 779727 / 850001 | TPS 80.3442 | ETA 00:14:34
Time 02:48:04 | Step 780529 / 850001 | TPS 80.1718 | ETA 00:14:26
Time 02:48:14 | Step 781335 / 850001 | TPS 80.3281 | ETA 00:14:14
Time 02:48:24 | Step 782156 / 850001 | TPS 81.8248 | ETA 00:13:49
Time 02:48:34 | Step 782976 / 850001 | TPS 81.9787 | ETA 00:13:37
Time 02:48:44 | Step 783792 / 850001 | TPS 81.3612 | ETA 00:13:33
Time 02:48:54 | Step 784601 / 850001 | TPS 80.7589 | ETA 00:13:29
Time 02:49:04 | Step 785403 / 850001 | TPS 80.1862 | ETA 00:13:25
Time 02:49:14 | Step 786187 / 850001 | TPS 78.3362 | ETA 00:13:34
Time 02:49:24 | Step 786889 / 850001 | TPS 69.9787 | ETA 00:15:01
Time 02:49:34 | Step 787586 / 850001 | TPS 69.6891 | ETA 00:14:55
Time 02:49:44 | Step 788328 / 850001 | TPS 74.0222 | ETA 00:13:53
Time 02:49:54 | Step 789101 / 850001 | TPS 77.1058 | ETA 00:13:09
Time 02:50:04 | Step 789780 / 850001 | TPS 67.8044 | ETA 00:14:48
Time 02:50:14 | Step 790524 / 850001 | TPS 74.3967 | ETA 00:13:19
Time 02:50:24 | Step 791287 / 850001 | TPS 76.1649 | ETA 00:12:50
Time 02:50:35 | Step 792043 / 850001 | TPS 75.3904 | ETA 00:12:48
Time 02:50:45 | Step 792757 / 850001 | TPS 71.3364 | ETA 00:13:22
Time 02:50:55 | Step 793461 / 850001 | TPS 70.3641 | ETA 00:13:23
Time 02:51:05 | Step 794215 / 850001 | TPS 75.1895 | ETA 00:12:21
Time 02:51:15 | Step 795011 / 850001 | TPS 79.5801 | ETA 00:11:31
Time 02:51:25 | Step 795801 / 850001 | TPS 78.6979 | ETA 00:11:28
Time 02:51:35 | Step 796601 / 850001 | TPS 79.6948 | ETA 00:11:10
Time 02:51:45 | Step 797354 / 850001 | TPS 75.2703 | ETA 00:11:39
Time 02:51:55 | Step 798164 / 850001 | TPS 80.9957 | ETA 00:10:39
Time 02:52:05 | Step 798970 / 850001 | TPS 80.3691 | ETA 00:10:34
Time 02:52:15 | Step 799771 / 850001 | TPS 80.0764 | ETA 00:10:27
Time 02:52:25 | Step 800575 / 850001 | TPS 80.1331 | ETA 00:10:16
Time 02:52:35 | Step 801394 / 850001 | TPS 81.7778 | ETA 00:09:54
Time 02:52:45 | Step 802203 / 850001 | TPS 80.8683 | ETA 00:09:51
Time 02:52:55 | Step 803016 / 850001 | TPS 81.2696 | ETA 00:09:38
Time 02:53:05 | Step 803828 / 850001 | TPS 81.1591 | ETA 00:09:28
Time 02:53:15 | Step 804643 / 850001 | TPS 81.4469 | ETA 00:09:16
Time 02:53:25 | Step 805448 / 850001 | TPS 80.4882 | ETA 00:09:13
Time 02:53:35 | Step 806262 / 850001 | TPS 81.3499 | ETA 00:08:57
Time 02:53:45 | Step 807075 / 850001 | TPS 81.1776 | ETA 00:08:48
Time 02:53:55 | Step 807893 / 850001 | TPS 81.68 | ETA 00:08:35
Time 02:54:05 | Step 808708 / 850001 | TPS 81.2112 | ETA 00:08:28
Time 02:54:15 | Step 809524 / 850001 | TPS 81.5957 | ETA 00:08:16
Time 02:54:25 | Step 810323 / 850001 | TPS 79.8975 | ETA 00:08:16
Time 02:54:35 | Step 811042 / 850001 | TPS 71.796 | ETA 00:09:02
Time 02:54:45 | Step 811786 / 850001 | TPS 74.3969 | ETA 00:08:33
Time 02:54:55 | Step 812563 / 850001 | TPS 77.4053 | ETA 00:08:03
Time 02:55:05 | Step 813375 / 850001 | TPS 81.1601 | ETA 00:07:31
Time 02:55:15 | Step 814192 / 850001 | TPS 81.593 | ETA 00:07:18
Time 02:55:25 | Step 814999 / 850001 | TPS 80.6584 | ETA 00:07:13
Time 02:55:35 | Step 815809 / 850001 | TPS 80.9695 | ETA 00:07:02
Time 02:55:45 | Step 816622 / 850001 | TPS 80.9588 | ETA 00:06:52
Time 02:55:55 | Step 817420 / 850001 | TPS 79.5154 | ETA 00:06:49
Time 02:56:05 | Step 818222 / 850001 | TPS 80.0263 | ETA 00:06:37
Time 02:56:15 | Step 819022 / 850001 | TPS 79.672 | ETA 00:06:28
Time 02:56:25 | Step 819821 / 850001 | TPS 79.8582 | ETA 00:06:17
Time 02:56:35 | Step 820611 / 850001 | TPS 78.9559 | ETA 00:06:12
Time 02:56:45 | Step 821391 / 850001 | TPS 77.812 | ETA 00:06:07
Time 02:56:55 | Step 822186 / 850001 | TPS 79.4534 | ETA 00:05:50
Time 02:57:05 | Step 822999 / 850001 | TPS 81.2107 | ETA 00:05:32
Time 02:57:15 | Step 823694 / 850001 | TPS 69.4872 | ETA 00:06:18
Time 02:57:25 | Step 824481 / 850001 | TPS 78.6993 | ETA 00:05:24
Time 02:57:35 | Step 825279 / 850001 | TPS 79.5667 | ETA 00:05:10
Time 02:57:45 | Step 826074 / 850001 | TPS 79.4781 | ETA 00:05:01
Time 02:57:55 | Step 826870 / 850001 | TPS 79.3369 | ETA 00:04:51
Time 02:58:05 | Step 827674 / 850001 | TPS 80.0345 | ETA 00:04:38
Time 02:58:15 | Step 828485 / 850001 | TPS 80.7929 | ETA 00:04:26
Time 02:58:25 | Step 829283 / 850001 | TPS 79.7725 | ETA 00:04:19
Time 02:58:35 | Step 830092 / 850001 | TPS 80.8774 | ETA 00:04:06
Time 02:58:45 | Step 830899 / 850001 | TPS 80.5902 | ETA 00:03:57
Time 02:58:55 | Step 831718 / 850001 | TPS 81.8767 | ETA 00:03:43
Time 02:59:05 | Step 832530 / 850001 | TPS 81.1938 | ETA 00:03:35
Time 02:59:15 | Step 833347 / 850001 | TPS 81.6665 | ETA 00:03:23
Time 02:59:25 | Step 834160 / 850001 | TPS 81.2612 | ETA 00:03:14
Time 02:59:35 | Step 834969 / 850001 | TPS 80.6862 | ETA 00:03:06
Time 02:59:45 | Step 835762 / 850001 | TPS 79.1193 | ETA 00:02:59
Time 02:59:55 | Step 836570 / 850001 | TPS 80.507 | ETA 00:02:46
Time 03:00:05 | Step 837364 / 850001 | TPS 79.1527 | ETA 00:02:39
Time 03:00:15 | Step 838001 / 850001 | TPS 63.6271 | ETA 00:03:08
Time 03:00:25 | Step 838674 / 850001 | TPS 67.2628 | ETA 00:02:48
Time 03:00:35 | Step 839358 / 850001 | TPS 68.193 | ETA 00:02:36
Time 03:00:45 | Step 840044 / 850001 | TPS 68.5731 | ETA 00:02:25
Time 03:00:55 | Step 840748 / 850001 | TPS 70.3506 | ETA 00:02:11
Time 03:01:05 | Step 841545 / 850001 | TPS 79.6954 | ETA 00:01:46
Time 03:01:15 | Step 842329 / 850001 | TPS 78.1751 | ETA 00:01:38
Time 03:01:25 | Step 843045 / 850001 | TPS 71.5791 | ETA 00:01:37
Time 03:01:35 | Step 843753 / 850001 | TPS 70.7627 | ETA 00:01:28
Time 03:01:45 | Step 844497 / 850001 | TPS 74.3982 | ETA 00:01:13
Time 03:01:55 | Step 845293 / 850001 | TPS 79.4801 | ETA 00:00:59
Time 03:02:06 | Step 846094 / 850001 | TPS 79.9966 | ETA 00:00:48
Time 03:02:16 | Step 846901 / 850001 | TPS 80.5921 | ETA 00:00:38
Time 03:02:26 | Step 847708 / 850001 | TPS 80.4293 | ETA 00:00:28
Time 03:02:36 | Step 848509 / 850001 | TPS 80.099 | ETA 00:00:18
Time 03:02:46 | Step 849324 / 850001 | TPS 81.4653 | ETA 00:00:08
Time 03:02:54 | Step 850001 / 850001 | TPS 79.8512 | ETA 00:00:00
Average TPS: 77.4537
---------
-- Neighborlist stats:
117405 normal updates / 8501 forced updates / 0 dangerous updates
n_neigh_min: 0 / n_neigh_max: 126 / n_neigh_avg: 51.7873
shortest rebuild period: 5
-- Cell list stats:
Dimension: 27, 27, 27
n_min    : 0 / n_max: 44 / n_avg: 0.152416
** run complete **
Generating extrusion bond list...
