HOOMD-blue 1.3.3-unknown CUDA (7.5) SINGLE MPI SSE SSE2 SSE3 
Compiled: 03/06/2016
Copyright 2009-2016 The Regents of the University of Michigan.

All publications and presentations based on HOOMD-blue, including any reports
or published results obtained, in whole or in part, with HOOMD-blue, will
acknowledge its use according to the terms posted at the time of submission on:
http://codeblue.umich.edu/hoomd-blue/citations.html
-----
You are using HOOMD-blue. Read and cite the following:
* J A Anderson, C D Lorenz, and A Travesset. "General purpose molecular dynamics
  simulations fully implemented on graphics processing units", Journal of
  Computational Physics 227 (2008) 5342--5359
and
* J Glaser, T D Nguyen, J A Anderson, P Liu, F Spiga, J A Millan, D C Morse, and
  S C Glotzer. "Strong scaling of general-purpose molecular dynamics simulations
  on GPUs", Computer Physics Communications 192 (2015) 97--107
and
* http://codeblue.umich.edu/hoomd-blue
You can save these citations to file using cite.save().
-----
notice(2): The NVIDIA driver only supports CUDA versions up to 6.5, but HOOMD was built against CUDA 7.5
notice(2): Ignoring any GPUs in the system.
HOOMD-blue is running on the CPU
*** Loading parameters
N 3000
steps 50000
print_every 10000
comp_spread 25
nextrude 4000
steps_per_extrude 200
nbonds 8
T 2.0
gamma 0.02
epsilon_intra 1.0
epsilon_inter 0.98
sigma 0.89089871814
lj_cut 2.5
k_bb 200.0
r0_bb 0.70710678118
k_loop 10.0
r0_loop 1.0
dt 0.005
*** Loading initial coordinates from /raid10/adrian/hoomd/test2_N3000/sim_3/structure3_t=150000.raw
Compartment boundary at 1004
Compartment boundary at 1218
Compartment boundary at 1773
Compartment boundary at 2983
Adjusted final boundary to 3000
Boxsize: 78.5738
hoomd_sim.py:070  |  system = init.read_snapshot(snapshot)
notice(2): Group "all" created containing 3000 particles
hoomd_sim.py:084  |  harmonic = bond.harmonic()
hoomd_sim.py:085  |  harmonic.bond_coeff.set('bb', k=params['k_bb'], r0=params['r0_bb'])
hoomd_sim.py:086  |  harmonic.bond_coeff.set('loop', k=params['k_loop'], r0=params['r0_loop'])
hoomd_sim.py:089  |  lj = pair.lj(r_cut=params['lj_cut'])
nlist.py:1051  |          globals.neighbor_list = cell();
hoomd_sim.py:090  |  lj.pair_coeff.set(comptypes[0], comptypes[0],
                  epsilon=params['epsilon_intra'], sigma=params['sigma'])
hoomd_sim.py:092  |  lj.pair_coeff.set(comptypes[1], comptypes[1],
                  epsilon=params['epsilon_intra'], sigma=params['sigma'])
hoomd_sim.py:094  |  lj.pair_coeff.set(comptypes[0], comptypes[1],
                  epsilon=params['epsilon_inter'], sigma=params['sigma'])
hoomd_sim.py:098  |  all = group.all();
hoomd_sim.py:099  |  integrate.mode_standard(dt=params['dt'])
hoomd_sim.py:100  |  lang = integrate.langevin(group=all, T=params['T'], seed=5)
notice(2): integrate.langevin/bd is using specified gamma values
hoomd_sim.py:101  |  lang.set_gamma('A', gamma=params['gamma'])
hoomd_sim.py:105  |  xml = dump.xml(filename='sim_topology.xml', vis=True) # system topology
hoomd_sim.py:106  |  dump.dcd(filename='sim_trajectory.dcd', period=params['print_every']) # trajectory
hoomd_sim.py:113  |  run(params['steps']+1)
notice(2): -- Neighborlist exclusion statistics -- :
notice(2): Particles with 1 exclusions             : 2
notice(2): Particles with 2 exclusions             : 2998
notice(2): Neighbors included by diameter          : no
notice(2): Neighbors excluded when in the same body: no
** starting run **
Time 00:00:10 | Step 601 / 50001 | TPS 60.0502 | ETA 00:13:42
Time 00:00:20 | Step 1376 / 50001 | TPS 77.4518 | ETA 00:10:27
Time 00:00:30 | Step 2166 / 50001 | TPS 78.8177 | ETA 00:10:06
Time 00:00:40 | Step 2965 / 50001 | TPS 79.8954 | ETA 00:09:48
Time 00:00:50 | Step 3773 / 50001 | TPS 80.6419 | ETA 00:09:33
Time 00:01:00 | Step 4593 / 50001 | TPS 81.9667 | ETA 00:09:13
Time 00:01:10 | Step 5415 / 50001 | TPS 82.1566 | ETA 00:09:02
Time 00:01:20 | Step 6256 / 50001 | TPS 84.0845 | ETA 00:08:40
Time 00:01:30 | Step 7092 / 50001 | TPS 83.5986 | ETA 00:08:33
Time 00:01:40 | Step 7921 / 50001 | TPS 82.8546 | ETA 00:08:27
Time 00:01:50 | Step 8743 / 50001 | TPS 81.9907 | ETA 00:08:23
Time 00:02:00 | Step 9567 / 50001 | TPS 82.3479 | ETA 00:08:11
Time 00:02:10 | Step 10398 / 50001 | TPS 83.0618 | ETA 00:07:56
Time 00:02:20 | Step 11236 / 50001 | TPS 83.5581 | ETA 00:07:43
Time 00:02:30 | Step 12085 / 50001 | TPS 84.6548 | ETA 00:07:27
Time 00:02:40 | Step 12912 / 50001 | TPS 82.6825 | ETA 00:07:28
Time 00:02:50 | Step 13733 / 50001 | TPS 82.0836 | ETA 00:07:21
Time 00:03:00 | Step 14556 / 50001 | TPS 82.2536 | ETA 00:07:10
Time 00:03:10 | Step 15381 / 50001 | TPS 82.4926 | ETA 00:06:59
Time 00:03:20 | Step 16200 / 50001 | TPS 81.7309 | ETA 00:06:53
Time 00:03:30 | Step 17021 / 50001 | TPS 82.0001 | ETA 00:06:42
Time 00:03:40 | Step 17851 / 50001 | TPS 82.6647 | ETA 00:06:28
Time 00:03:50 | Step 18684 / 50001 | TPS 83.2885 | ETA 00:06:16
Time 00:04:00 | Step 19528 / 50001 | TPS 84.1923 | ETA 00:06:01
Time 00:04:10 | Step 20376 / 50001 | TPS 84.7539 | ETA 00:05:49
Time 00:04:20 | Step 21208 / 50001 | TPS 83.0808 | ETA 00:05:46
Time 00:04:30 | Step 22042 / 50001 | TPS 83.0835 | ETA 00:05:36
Time 00:04:40 | Step 22869 / 50001 | TPS 82.6519 | ETA 00:05:28
Time 00:04:50 | Step 23686 / 50001 | TPS 81.6359 | ETA 00:05:22
Time 00:05:00 | Step 24507 / 50001 | TPS 82.0774 | ETA 00:05:10
Time 00:05:10 | Step 25336 / 50001 | TPS 82.6587 | ETA 00:04:58
Time 00:05:20 | Step 26162 / 50001 | TPS 82.5778 | ETA 00:04:48
Time 00:05:30 | Step 26996 / 50001 | TPS 83.3608 | ETA 00:04:35
Time 00:05:40 | Step 27827 / 50001 | TPS 83.0777 | ETA 00:04:26
Time 00:05:50 | Step 28660 / 50001 | TPS 83.2979 | ETA 00:04:16
Time 00:06:00 | Step 29487 / 50001 | TPS 82.6082 | ETA 00:04:08
Time 00:06:10 | Step 30330 / 50001 | TPS 84.2636 | ETA 00:03:53
Time 00:06:20 | Step 31165 / 50001 | TPS 83.4586 | ETA 00:03:45
Time 00:06:30 | Step 32013 / 50001 | TPS 84.7797 | ETA 00:03:32
Time 00:06:40 | Step 32855 / 50001 | TPS 84.1972 | ETA 00:03:23
Time 00:06:50 | Step 33692 / 50001 | TPS 83.6646 | ETA 00:03:14
Time 00:07:00 | Step 34529 / 50001 | TPS 83.6782 | ETA 00:03:04
Time 00:07:10 | Step 35365 / 50001 | TPS 83.5453 | ETA 00:02:55
Time 00:07:20 | Step 36207 / 50001 | TPS 84.1902 | ETA 00:02:43
Time 00:07:30 | Step 37050 / 50001 | TPS 84.0842 | ETA 00:02:34
Time 00:07:40 | Step 37883 / 50001 | TPS 83.2857 | ETA 00:02:25
Time 00:07:50 | Step 38715 / 50001 | TPS 82.9378 | ETA 00:02:16
Time 00:08:00 | Step 39562 / 50001 | TPS 84.373 | ETA 00:02:03
Time 00:08:10 | Step 40393 / 50001 | TPS 83.054 | ETA 00:01:55
Time 00:08:20 | Step 41238 / 50001 | TPS 84.4536 | ETA 00:01:43
Time 00:08:30 | Step 42088 / 50001 | TPS 84.967 | ETA 00:01:33
Time 00:08:40 | Step 42924 / 50001 | TPS 83.3291 | ETA 00:01:24
Time 00:08:50 | Step 43771 / 50001 | TPS 84.528 | ETA 00:01:13
Time 00:09:00 | Step 44604 / 50001 | TPS 83.2875 | ETA 00:01:04
Time 00:09:10 | Step 45445 / 50001 | TPS 84.0712 | ETA 00:00:54
Time 00:09:20 | Step 46294 / 50001 | TPS 84.7489 | ETA 00:00:43
Time 00:09:30 | Step 47136 / 50001 | TPS 84.0251 | ETA 00:00:34
Time 00:09:40 | Step 47976 / 50001 | TPS 83.9637 | ETA 00:00:24
Time 00:09:50 | Step 48809 / 50001 | TPS 83.2693 | ETA 00:00:14
Time 00:10:00 | Step 49642 / 50001 | TPS 83.2911 | ETA 00:00:04
Time 00:10:05 | Step 50001 / 50001 | TPS 81.7516 | ETA 00:00:00
Average TPS: 82.6408
---------
-- Neighborlist stats:
6871 normal updates / 501 forced updates / 0 dangerous updates
n_neigh_min: 0 / n_neigh_max: 137 / n_neigh_avg: 51.7483
shortest rebuild period: 5
-- Cell list stats:
Dimension: 27, 27, 27
n_min    : 0 / n_max: 39 / n_avg: 0.152416
** run complete **
Generating extrusion bond list...
step 1000...
step 2000...
step 3000...
step 4000...
hoomd_sim.py:134  |      run(params['steps_per_extrude'])
** starting run **
Time 00:10:10 | Step 50201 / 50201 | TPS 80.7042 | ETA 00:00:00
Average TPS: 80.7006
---------
-- Neighborlist stats:
28 normal updates / 3 forced updates / 0 dangerous updates
n_neigh_min: 0 / n_neigh_max: 137 / n_neigh_avg: 51.9887
shortest rebuild period: 6
-- Cell list stats:
Dimension: 27, 27, 27
n_min    : 0 / n_max: 40 / n_avg: 0.152416
** run complete **
hoomd_sim.py:134  |      run(params['steps_per_extrude'])
** starting run **
Time 00:10:12 | Step 50401 / 50401 | TPS 82.1915 | ETA 00:00:00
Average TPS: 82.1878
---------
-- Neighborlist stats:
27 normal updates / 3 forced updates / 0 dangerous updates
n_neigh_min: 0 / n_neigh_max: 135 / n_neigh_avg: 51.343
shortest rebuild period: 6
-- Cell list stats:
Dimension: 27, 27, 27
n_min    : 0 / n_max: 38 / n_avg: 0.152416
** run complete **
hoomd_sim.py:134  |      run(params['steps_per_extrude'])
** starting run **
Time 00:10:15 | Step 50601 / 50601 | TPS 72.5109 | ETA 00:00:00
Average TPS: 72.5081
---------
-- Neighborlist stats:
28 normal updates / 3 forced updates / 0 dangerous updates
n_neigh_min: 0 / n_neigh_max: 141 / n_neigh_avg: 51.856
shortest rebuild period: 6
-- Cell list stats:
Dimension: 27, 27, 27
n_min    : 0 / n_max: 41 / n_avg: 0.152416
** run complete **
hoomd_sim.py:134  |      run(params['steps_per_extrude'])
** starting run **
Time 00:10:18 | Step 50801 / 50801 | TPS 79.3921 | ETA 00:00:00
Average TPS: 79.3888
---------
-- Neighborlist stats:
28 normal updates / 3 forced updates / 0 dangerous updates
n_neigh_min: 0 / n_neigh_max: 139 / n_neigh_avg: 52.5657
shortest rebuild period: 6
-- Cell list stats:
Dimension: 27, 27, 27
n_min    : 0 / n_max: 43 / n_avg: 0.152416
** run complete **
hoomd_sim.py:134  |      run(params['steps_per_extrude'])
** starting run **
Time 00:10:20 | Step 51001 / 51001 | TPS 81.344 | ETA 00:00:00
Average TPS: 81.3403
---------
-- Neighborlist stats:
27 normal updates / 3 forced updates / 0 dangerous updates
n_neigh_min: 0 / n_neigh_max: 131 / n_neigh_avg: 51.386
shortest rebuild period: 6
-- Cell list stats:
Dimension: 27, 27, 27
n_min    : 0 / n_max: 38 / n_avg: 0.152416
** run complete **
hoomd_sim.py:134  |      run(params['steps_per_extrude'])
** starting run **
Time 00:10:23 | Step 51201 / 51201 | TPS 82.0221 | ETA 00:00:00
Average TPS: 82.0177
---------
-- Neighborlist stats:
27 normal updates / 3 forced updates / 0 dangerous updates
n_neigh_min: 0 / n_neigh_max: 138 / n_neigh_avg: 51.2947
shortest rebuild period: 6
-- Cell list stats:
Dimension: 27, 27, 27
n_min    : 0 / n_max: 39 / n_avg: 0.152416
** run complete **
hoomd_sim.py:134  |      run(params['steps_per_extrude'])
** starting run **
Time 00:10:25 | Step 51401 / 51401 | TPS 80.9967 | ETA 00:00:00
Average TPS: 80.9931
---------
-- Neighborlist stats:
28 normal updates / 3 forced updates / 0 dangerous updates
n_neigh_min: 0 / n_neigh_max: 130 / n_neigh_avg: 51.0777
shortest rebuild period: 6
-- Cell list stats:
Dimension: 27, 27, 27
n_min    : 0 / n_max: 40 / n_avg: 0.152416
** run complete **
hoomd_sim.py:134  |      run(params['steps_per_extrude'])
** starting run **
Time 00:10:28 | Step 51601 / 51601 | TPS 82.8174 | ETA 00:00:00
Average TPS: 82.8136
---------
-- Neighborlist stats:
27 normal updates / 3 forced updates / 0 dangerous updates
n_neigh_min: 0 / n_neigh_max: 140 / n_neigh_avg: 50.9213
shortest rebuild period: 6
-- Cell list stats:
Dimension: 27, 27, 27
n_min    : 0 / n_max: 41 / n_avg: 0.152416
** run complete **
hoomd_sim.py:134  |      run(params['steps_per_extrude'])
** starting run **
Time 00:10:30 | Step 51801 / 51801 | TPS 83.4944 | ETA 00:00:00
Average TPS: 83.4906
---------
-- Neighborlist stats:
27 normal updates / 3 forced updates / 0 dangerous updates
n_neigh_min: 0 / n_neigh_max: 137 / n_neigh_avg: 51.0583
shortest rebuild period: 6
-- Cell list stats:
Dimension: 27, 27, 27
n_min    : 0 / n_max: 43 / n_avg: 0.152416
** run complete **
hoomd_sim.py:134  |      run(params['steps_per_extrude'])
** starting run **
Time 00:10:33 | Step 52001 / 52001 | TPS 82.7225 | ETA 00:00:00
Average TPS: 82.7193
---------
-- Neighborlist stats:
28 normal updates / 3 forced updates / 0 dangerous updates
n_neigh_min: 0 / n_neigh_max: 138 / n_neigh_avg: 50.4923
shortest rebuild period: 5
-- Cell list stats:
Dimension: 27, 27, 27
n_min    : 0 / n_max: 39 / n_avg: 0.152416
** run complete **
hoomd_sim.py:134  |      run(params['steps_per_extrude'])
** starting run **
Time 00:10:35 | Step 52201 / 52201 | TPS 82.9627 | ETA 00:00:00
Average TPS: 82.9583
---------
-- Neighborlist stats:
28 normal updates / 3 forced updates / 0 dangerous updates
n_neigh_min: 0 / n_neigh_max: 133 / n_neigh_avg: 50.418
shortest rebuild period: 6
-- Cell list stats:
Dimension: 27, 27, 27
n_min    : 0 / n_max: 39 / n_avg: 0.152416
** run complete **
hoomd_sim.py:134  |      run(params['steps_per_extrude'])
** starting run **
Time 00:10:38 | Step 52401 / 52401 | TPS 67.8361 | ETA 00:00:00
Average TPS: 67.8336
---------
-- Neighborlist stats:
28 normal updates / 3 forced updates / 0 dangerous updates
n_neigh_min: 0 / n_neigh_max: 131 / n_neigh_avg: 50.9033
shortest rebuild period: 6
-- Cell list stats:
Dimension: 27, 27, 27
n_min    : 0 / n_max: 39 / n_avg: 0.152416
** run complete **
hoomd_sim.py:134  |      run(params['steps_per_extrude'])
** starting run **
Time 00:10:41 | Step 52601 / 52601 | TPS 82.1406 | ETA 00:00:00
Average TPS: 82.137
---------
-- Neighborlist stats:
28 normal updates / 3 forced updates / 0 dangerous updates
n_neigh_min: 0 / n_neigh_max: 138 / n_neigh_avg: 51.3927
shortest rebuild period: 6
-- Cell list stats:
Dimension: 27, 27, 27
n_min    : 0 / n_max: 41 / n_avg: 0.152416
** run complete **
hoomd_sim.py:134  |      run(params['steps_per_extrude'])
** starting run **
Time 00:10:43 | Step 52801 / 52801 | TPS 81.2891 | ETA 00:00:00
Average TPS: 81.2854
---------
-- Neighborlist stats:
28 normal updates / 3 forced updates / 0 dangerous updates
n_neigh_min: 0 / n_neigh_max: 139 / n_neigh_avg: 51.9327
shortest rebuild period: 5
-- Cell list stats:
Dimension: 27, 27, 27
n_min    : 0 / n_max: 38 / n_avg: 0.152416
** run complete **
hoomd_sim.py:134  |      run(params['steps_per_extrude'])
** starting run **
Time 00:10:46 | Step 53001 / 53001 | TPS 81.1912 | ETA 00:00:00
Average TPS: 81.1875
---------
-- Neighborlist stats:
28 normal updates / 3 forced updates / 0 dangerous updates
n_neigh_min: 0 / n_neigh_max: 137 / n_neigh_avg: 51.546
shortest rebuild period: 6
-- Cell list stats:
Dimension: 27, 27, 27
n_min    : 0 / n_max: 43 / n_avg: 0.152416
** run complete **
hoomd_sim.py:134  |      run(params['steps_per_extrude'])
** starting run **
Time 00:10:48 | Step 53201 / 53201 | TPS 82.2948 | ETA 00:00:00
Average TPS: 82.2909
---------
-- Neighborlist stats:
28 normal updates / 3 forced updates / 0 dangerous updates
n_neigh_min: 0 / n_neigh_max: 134 / n_neigh_avg: 50.242
shortest rebuild period: 6
-- Cell list stats:
Dimension: 27, 27, 27
n_min    : 0 / n_max: 38 / n_avg: 0.152416
** run complete **
hoomd_sim.py:134  |      run(params['steps_per_extrude'])
** starting run **
Time 00:10:50 | Step 53401 / 53401 | TPS 82.4577 | ETA 00:00:00
Average TPS: 82.454
---------
-- Neighborlist stats:
28 normal updates / 3 forced updates / 0 dangerous updates
n_neigh_min: 0 / n_neigh_max: 136 / n_neigh_avg: 51.5223
shortest rebuild period: 6
-- Cell list stats:
Dimension: 27, 27, 27
n_min    : 0 / n_max: 41 / n_avg: 0.152416
** run complete **
hoomd_sim.py:134  |      run(params['steps_per_extrude'])
** starting run **
Time 00:10:53 | Step 53601 / 53601 | TPS 82.7838 | ETA 00:00:00
Average TPS: 82.7799
---------
-- Neighborlist stats:
27 normal updates / 3 forced updates / 0 dangerous updates
n_neigh_min: 0 / n_neigh_max: 144 / n_neigh_avg: 50.7447
shortest rebuild period: 6
-- Cell list stats:
Dimension: 27, 27, 27
n_min    : 0 / n_max: 39 / n_avg: 0.152416
** run complete **
hoomd_sim.py:134  |      run(params['steps_per_extrude'])
** starting run **
Time 00:10:55 | Step 53801 / 53801 | TPS 82.8243 | ETA 00:00:00
Average TPS: 82.8205
---------
-- Neighborlist stats:
27 normal updates / 3 forced updates / 0 dangerous updates
n_neigh_min: 0 / n_neigh_max: 144 / n_neigh_avg: 50.562
shortest rebuild period: 6
-- Cell list stats:
Dimension: 27, 27, 27
n_min    : 0 / n_max: 40 / n_avg: 0.152416
** run complete **
hoomd_sim.py:134  |      run(params['steps_per_extrude'])
** starting run **
Time 00:10:58 | Step 54001 / 54001 | TPS 82.6539 | ETA 00:00:00
Average TPS: 82.65
---------
-- Neighborlist stats:
27 normal updates / 3 forced updates / 0 dangerous updates
n_neigh_min: 0 / n_neigh_max: 129 / n_neigh_avg: 51.3727
shortest rebuild period: 7
-- Cell list stats:
Dimension: 27, 27, 27
n_min    : 0 / n_max: 41 / n_avg: 0.152416
** run complete **
hoomd_sim.py:134  |      run(params['steps_per_extrude'])
** starting run **
Time 00:11:00 | Step 54201 / 54201 | TPS 80.6885 | ETA 00:00:00
Average TPS: 80.6855
---------
-- Neighborlist stats:
28 normal updates / 3 forced updates / 0 dangerous updates
n_neigh_min: 0 / n_neigh_max: 142 / n_neigh_avg: 51.681
shortest rebuild period: 6
-- Cell list stats:
Dimension: 27, 27, 27
n_min    : 0 / n_max: 42 / n_avg: 0.152416
** run complete **
hoomd_sim.py:134  |      run(params['steps_per_extrude'])
** starting run **
Time 00:11:03 | Step 54401 / 54401 | TPS 80.645 | ETA 00:00:00
Average TPS: 80.6415
---------
-- Neighborlist stats:
28 normal updates / 3 forced updates / 0 dangerous updates
n_neigh_min: 0 / n_neigh_max: 130 / n_neigh_avg: 51.402
shortest rebuild period: 6
-- Cell list stats:
Dimension: 27, 27, 27
n_min    : 0 / n_max: 43 / n_avg: 0.152416
** run complete **
hoomd_sim.py:134  |      run(params['steps_per_extrude'])
** starting run **
Time 00:11:05 | Step 54601 / 54601 | TPS 81.6198 | ETA 00:00:00
Average TPS: 81.6162
---------
-- Neighborlist stats:
28 normal updates / 3 forced updates / 0 dangerous updates
n_neigh_min: 0 / n_neigh_max: 134 / n_neigh_avg: 50.4887
shortest rebuild period: 6
-- Cell list stats:
Dimension: 27, 27, 27
n_min    : 0 / n_max: 38 / n_avg: 0.152416
** run complete **
hoomd_sim.py:134  |      run(params['steps_per_extrude'])
** starting run **
Time 00:11:08 | Step 54801 / 54801 | TPS 82.2619 | ETA 00:00:00
Average TPS: 82.2581
---------
-- Neighborlist stats:
28 normal updates / 3 forced updates / 0 dangerous updates
n_neigh_min: 0 / n_neigh_max: 138 / n_neigh_avg: 50.501
shortest rebuild period: 6
-- Cell list stats:
Dimension: 27, 27, 27
n_min    : 0 / n_max: 41 / n_avg: 0.152416
** run complete **
hoomd_sim.py:134  |      run(params['steps_per_extrude'])
** starting run **
Time 00:11:10 | Step 55001 / 55001 | TPS 81.6545 | ETA 00:00:00
Average TPS: 81.6508
---------
-- Neighborlist stats:
28 normal updates / 3 forced updates / 0 dangerous updates
n_neigh_min: 0 / n_neigh_max: 137 / n_neigh_avg: 50.904
shortest rebuild period: 6
-- Cell list stats:
Dimension: 27, 27, 27
n_min    : 0 / n_max: 41 / n_avg: 0.152416
** run complete **
hoomd_sim.py:134  |      run(params['steps_per_extrude'])
** starting run **
Time 00:11:13 | Step 55201 / 55201 | TPS 82.7776 | ETA 00:00:00
Average TPS: 82.774
---------
-- Neighborlist stats:
27 normal updates / 3 forced updates / 0 dangerous updates
n_neigh_min: 0 / n_neigh_max: 135 / n_neigh_avg: 50.6157
shortest rebuild period: 6
-- Cell list stats:
Dimension: 27, 27, 27
n_min    : 0 / n_max: 37 / n_avg: 0.152416
** run complete **
hoomd_sim.py:134  |      run(params['steps_per_extrude'])
** starting run **
Time 00:11:15 | Step 55401 / 55401 | TPS 82.6308 | ETA 00:00:00
Average TPS: 82.6271
---------
-- Neighborlist stats:
28 normal updates / 3 forced updates / 0 dangerous updates
n_neigh_min: 0 / n_neigh_max: 135 / n_neigh_avg: 50.254
shortest rebuild period: 6
-- Cell list stats:
Dimension: 27, 27, 27
n_min    : 0 / n_max: 39 / n_avg: 0.152416
** run complete **
hoomd_sim.py:134  |      run(params['steps_per_extrude'])
** starting run **
Time 00:11:18 | Step 55601 / 55601 | TPS 81.7732 | ETA 00:00:00
Average TPS: 81.7695
---------
-- Neighborlist stats:
28 normal updates / 3 forced updates / 0 dangerous updates
n_neigh_min: 0 / n_neigh_max: 138 / n_neigh_avg: 51.4293
shortest rebuild period: 6
-- Cell list stats:
Dimension: 27, 27, 27
n_min    : 0 / n_max: 40 / n_avg: 0.152416
** run complete **
hoomd_sim.py:134  |      run(params['steps_per_extrude'])
** starting run **
Time 00:11:20 | Step 55801 / 55801 | TPS 79.966 | ETA 00:00:00
Average TPS: 79.9625
---------
-- Neighborlist stats:
29 normal updates / 3 forced updates / 0 dangerous updates
n_neigh_min: 0 / n_neigh_max: 135 / n_neigh_avg: 51.4667
shortest rebuild period: 6
-- Cell list stats:
Dimension: 27, 27, 27
n_min    : 0 / n_max: 40 / n_avg: 0.152416
** run complete **
hoomd_sim.py:134  |      run(params['steps_per_extrude'])
** starting run **
Time 00:11:23 | Step 56001 / 56001 | TPS 81.2582 | ETA 00:00:00
Average TPS: 81.2537
---------
-- Neighborlist stats:
28 normal updates / 3 forced updates / 0 dangerous updates
n_neigh_min: 0 / n_neigh_max: 133 / n_neigh_avg: 50.9063
shortest rebuild period: 5
-- Cell list stats:
Dimension: 27, 27, 27
n_min    : 0 / n_max: 40 / n_avg: 0.152416
** run complete **
hoomd_sim.py:134  |      run(params['steps_per_extrude'])
** starting run **
Time 00:11:25 | Step 56201 / 56201 | TPS 80.8339 | ETA 00:00:00
Average TPS: 80.8303
---------
-- Neighborlist stats:
28 normal updates / 3 forced updates / 0 dangerous updates
n_neigh_min: 0 / n_neigh_max: 134 / n_neigh_avg: 51.2787
shortest rebuild period: 6
-- Cell list stats:
Dimension: 27, 27, 27
n_min    : 0 / n_max: 39 / n_avg: 0.152416
** run complete **
hoomd_sim.py:134  |      run(params['steps_per_extrude'])
** starting run **
Time 00:11:28 | Step 56401 / 56401 | TPS 82.4336 | ETA 00:00:00
Average TPS: 82.4299
---------
-- Neighborlist stats:
27 normal updates / 3 forced updates / 0 dangerous updates
n_neigh_min: 0 / n_neigh_max: 133 / n_neigh_avg: 50.9757
shortest rebuild period: 6
-- Cell list stats:
Dimension: 27, 27, 27
n_min    : 0 / n_max: 39 / n_avg: 0.152416
** run complete **
hoomd_sim.py:134  |      run(params['steps_per_extrude'])
** starting run **
Time 00:11:30 | Step 56601 / 56601 | TPS 82.5814 | ETA 00:00:00
Average TPS: 82.5781
---------
-- Neighborlist stats:
27 normal updates / 3 forced updates / 0 dangerous updates
n_neigh_min: 0 / n_neigh_max: 144 / n_neigh_avg: 51.688
shortest rebuild period: 7
-- Cell list stats:
Dimension: 27, 27, 27
n_min    : 0 / n_max: 41 / n_avg: 0.152416
** run complete **
hoomd_sim.py:134  |      run(params['steps_per_extrude'])
** starting run **
Time 00:11:33 | Step 56801 / 56801 | TPS 80.5189 | ETA 00:00:00
Average TPS: 80.5152
---------
-- Neighborlist stats:
28 normal updates / 3 forced updates / 0 dangerous updates
n_neigh_min: 0 / n_neigh_max: 144 / n_neigh_avg: 51.3893
shortest rebuild period: 6
-- Cell list stats:
Dimension: 27, 27, 27
n_min    : 0 / n_max: 42 / n_avg: 0.152416
** run complete **
hoomd_sim.py:134  |      run(params['steps_per_extrude'])
** starting run **
Time 00:11:35 | Step 57001 / 57001 | TPS 81.0213 | ETA 00:00:00
Average TPS: 81.0178
---------
-- Neighborlist stats:
28 normal updates / 3 forced updates / 0 dangerous updates
n_neigh_min: 0 / n_neigh_max: 143 / n_neigh_avg: 50.82
shortest rebuild period: 6
-- Cell list stats:
Dimension: 27, 27, 27
n_min    : 0 / n_max: 41 / n_avg: 0.152416
** run complete **
hoomd_sim.py:134  |      run(params['steps_per_extrude'])
** starting run **
Time 00:11:38 | Step 57201 / 57201 | TPS 80.5947 | ETA 00:00:00
Average TPS: 80.5911
---------
-- Neighborlist stats:
29 normal updates / 3 forced updates / 0 dangerous updates
n_neigh_min: 0 / n_neigh_max: 127 / n_neigh_avg: 51.129
shortest rebuild period: 5
-- Cell list stats:
Dimension: 27, 27, 27
n_min    : 0 / n_max: 38 / n_avg: 0.152416
** run complete **
hoomd_sim.py:134  |      run(params['steps_per_extrude'])
** starting run **
Time 00:11:40 | Step 57401 / 57401 | TPS 81.5031 | ETA 00:00:00
Average TPS: 81.4994
---------
-- Neighborlist stats:
28 normal updates / 3 forced updates / 0 dangerous updates
n_neigh_min: 0 / n_neigh_max: 132 / n_neigh_avg: 51.348
shortest rebuild period: 6
-- Cell list stats:
Dimension: 27, 27, 27
n_min    : 0 / n_max: 39 / n_avg: 0.152416
** run complete **
hoomd_sim.py:134  |      run(params['steps_per_extrude'])
** starting run **
Time 00:11:43 | Step 57601 / 57601 | TPS 81.1023 | ETA 00:00:00
Average TPS: 81.0988
---------
-- Neighborlist stats:
28 normal updates / 3 forced updates / 0 dangerous updates
n_neigh_min: 0 / n_neigh_max: 133 / n_neigh_avg: 51.332
shortest rebuild period: 6
-- Cell list stats:
Dimension: 27, 27, 27
n_min    : 0 / n_max: 40 / n_avg: 0.152416
** run complete **
hoomd_sim.py:134  |      run(params['steps_per_extrude'])
** starting run **
Time 00:11:45 | Step 57801 / 57801 | TPS 83.2375 | ETA 00:00:00
Average TPS: 83.2338
---------
-- Neighborlist stats:
27 normal updates / 3 forced updates / 0 dangerous updates
n_neigh_min: 0 / n_neigh_max: 129 / n_neigh_avg: 50.492
shortest rebuild period: 6
-- Cell list stats:
Dimension: 27, 27, 27
n_min    : 0 / n_max: 39 / n_avg: 0.152416
** run complete **
hoomd_sim.py:134  |      run(params['steps_per_extrude'])
** starting run **
Time 00:11:48 | Step 58001 / 58001 | TPS 82.4527 | ETA 00:00:00
Average TPS: 82.449
---------
-- Neighborlist stats:
28 normal updates / 3 forced updates / 0 dangerous updates
n_neigh_min: 0 / n_neigh_max: 133 / n_neigh_avg: 50.6177
shortest rebuild period: 7
-- Cell list stats:
Dimension: 27, 27, 27
n_min    : 0 / n_max: 40 / n_avg: 0.152416
** run complete **
hoomd_sim.py:134  |      run(params['steps_per_extrude'])
** starting run **
Time 00:11:50 | Step 58201 / 58201 | TPS 82.053 | ETA 00:00:00
Average TPS: 82.0492
---------
-- Neighborlist stats:
28 normal updates / 3 forced updates / 0 dangerous updates
n_neigh_min: 0 / n_neigh_max: 137 / n_neigh_avg: 50.8103
shortest rebuild period: 6
-- Cell list stats:
Dimension: 27, 27, 27
n_min    : 0 / n_max: 38 / n_avg: 0.152416
** run complete **
hoomd_sim.py:134  |      run(params['steps_per_extrude'])
** starting run **
Time 00:11:53 | Step 58401 / 58401 | TPS 81.5811 | ETA 00:00:00
Average TPS: 81.5774
---------
-- Neighborlist stats:
28 normal updates / 3 forced updates / 0 dangerous updates
n_neigh_min: 0 / n_neigh_max: 133 / n_neigh_avg: 51.097
shortest rebuild period: 6
-- Cell list stats:
Dimension: 27, 27, 27
n_min    : 0 / n_max: 38 / n_avg: 0.152416
** run complete **
hoomd_sim.py:134  |      run(params['steps_per_extrude'])
** starting run **
Time 00:11:55 | Step 58601 / 58601 | TPS 81.329 | ETA 00:00:00
Average TPS: 81.3253
---------
-- Neighborlist stats:
28 normal updates / 3 forced updates / 0 dangerous updates
n_neigh_min: 0 / n_neigh_max: 133 / n_neigh_avg: 51.2837
shortest rebuild period: 6
-- Cell list stats:
Dimension: 27, 27, 27
n_min    : 0 / n_max: 39 / n_avg: 0.152416
** run complete **
hoomd_sim.py:134  |      run(params['steps_per_extrude'])
** starting run **
Time 00:11:58 | Step 58801 / 58801 | TPS 81.5377 | ETA 00:00:00
Average TPS: 81.5339
---------
-- Neighborlist stats:
28 normal updates / 3 forced updates / 0 dangerous updates
n_neigh_min: 0 / n_neigh_max: 144 / n_neigh_avg: 51.5317
shortest rebuild period: 6
-- Cell list stats:
Dimension: 27, 27, 27
n_min    : 0 / n_max: 43 / n_avg: 0.152416
** run complete **
hoomd_sim.py:134  |      run(params['steps_per_extrude'])
** starting run **
Time 00:12:00 | Step 59001 / 59001 | TPS 82.4677 | ETA 00:00:00
Average TPS: 82.4639
---------
-- Neighborlist stats:
28 normal updates / 3 forced updates / 0 dangerous updates
n_neigh_min: 0 / n_neigh_max: 136 / n_neigh_avg: 50.4827
shortest rebuild period: 6
-- Cell list stats:
Dimension: 27, 27, 27
n_min    : 0 / n_max: 39 / n_avg: 0.152416
** run complete **
hoomd_sim.py:134  |      run(params['steps_per_extrude'])
** starting run **
Time 00:12:03 | Step 59201 / 59201 | TPS 84.4751 | ETA 00:00:00
Average TPS: 84.4712
---------
-- Neighborlist stats:
27 normal updates / 3 forced updates / 0 dangerous updates
n_neigh_min: 0 / n_neigh_max: 135 / n_neigh_avg: 50.768
shortest rebuild period: 6
-- Cell list stats:
Dimension: 27, 27, 27
n_min    : 0 / n_max: 39 / n_avg: 0.152416
** run complete **
hoomd_sim.py:134  |      run(params['steps_per_extrude'])
** starting run **
Time 00:12:05 | Step 59401 / 59401 | TPS 83.0397 | ETA 00:00:00
Average TPS: 83.0359
---------
-- Neighborlist stats:
28 normal updates / 3 forced updates / 0 dangerous updates
n_neigh_min: 0 / n_neigh_max: 144 / n_neigh_avg: 50.5753
shortest rebuild period: 6
-- Cell list stats:
Dimension: 27, 27, 27
n_min    : 0 / n_max: 41 / n_avg: 0.152416
** run complete **
hoomd_sim.py:134  |      run(params['steps_per_extrude'])
** starting run **
Time 00:12:08 | Step 59601 / 59601 | TPS 83.2019 | ETA 00:00:00
Average TPS: 83.198
---------
-- Neighborlist stats:
28 normal updates / 3 forced updates / 0 dangerous updates
n_neigh_min: 0 / n_neigh_max: 136 / n_neigh_avg: 49.99
shortest rebuild period: 6
-- Cell list stats:
Dimension: 27, 27, 27
n_min    : 0 / n_max: 41 / n_avg: 0.152416
** run complete **
hoomd_sim.py:134  |      run(params['steps_per_extrude'])
** starting run **
Time 00:12:10 | Step 59801 / 59801 | TPS 83.8242 | ETA 00:00:00
Average TPS: 83.8204
---------
-- Neighborlist stats:
28 normal updates / 3 forced updates / 0 dangerous updates
n_neigh_min: 0 / n_neigh_max: 134 / n_neigh_avg: 50.22
shortest rebuild period: 5
-- Cell list stats:
Dimension: 27, 27, 27
n_min    : 0 / n_max: 41 / n_avg: 0.152416
** run complete **
hoomd_sim.py:134  |      run(params['steps_per_extrude'])
** starting run **
Time 00:12:12 | Step 60001 / 60001 | TPS 83.1255 | ETA 00:00:00
Average TPS: 83.1217
---------
-- Neighborlist stats:
28 normal updates / 3 forced updates / 0 dangerous updates
n_neigh_min: 0 / n_neigh_max: 135 / n_neigh_avg: 50.601
shortest rebuild period: 6
-- Cell list stats:
Dimension: 27, 27, 27
n_min    : 0 / n_max: 43 / n_avg: 0.152416
** run complete **
hoomd_sim.py:134  |      run(params['steps_per_extrude'])
** starting run **
Time 00:12:15 | Step 60201 / 60201 | TPS 81.5956 | ETA 00:00:00
Average TPS: 81.592
---------
-- Neighborlist stats:
29 normal updates / 3 forced updates / 0 dangerous updates
n_neigh_min: 0 / n_neigh_max: 135 / n_neigh_avg: 50.5093
shortest rebuild period: 6
-- Cell list stats:
Dimension: 27, 27, 27
n_min    : 0 / n_max: 40 / n_avg: 0.152416
** run complete **
hoomd_sim.py:134  |      run(params['steps_per_extrude'])
** starting run **
Time 00:12:17 | Step 60401 / 60401 | TPS 83.356 | ETA 00:00:00
Average TPS: 83.3522
---------
-- Neighborlist stats:
28 normal updates / 3 forced updates / 0 dangerous updates
n_neigh_min: 0 / n_neigh_max: 130 / n_neigh_avg: 50.154
shortest rebuild period: 6
-- Cell list stats:
Dimension: 27, 27, 27
n_min    : 0 / n_max: 39 / n_avg: 0.152416
** run complete **
hoomd_sim.py:134  |      run(params['steps_per_extrude'])
** starting run **
Time 00:12:20 | Step 60601 / 60601 | TPS 82.0011 | ETA 00:00:00
Average TPS: 81.9972
---------
-- Neighborlist stats:
29 normal updates / 3 forced updates / 0 dangerous updates
n_neigh_min: 0 / n_neigh_max: 128 / n_neigh_avg: 50.3647
shortest rebuild period: 6
-- Cell list stats:
Dimension: 27, 27, 27
n_min    : 0 / n_max: 40 / n_avg: 0.152416
** run complete **
hoomd_sim.py:134  |      run(params['steps_per_extrude'])
** starting run **
Time 00:12:22 | Step 60801 / 60801 | TPS 81.9598 | ETA 00:00:00
Average TPS: 81.956
---------
-- Neighborlist stats:
28 normal updates / 3 forced updates / 0 dangerous updates
n_neigh_min: 0 / n_neigh_max: 135 / n_neigh_avg: 50.7877
shortest rebuild period: 6
-- Cell list stats:
Dimension: 27, 27, 27
n_min    : 0 / n_max: 39 / n_avg: 0.152416
** run complete **
hoomd_sim.py:134  |      run(params['steps_per_extrude'])
** starting run **
Time 00:12:25 | Step 61001 / 61001 | TPS 81.8287 | ETA 00:00:00
Average TPS: 81.825
---------
-- Neighborlist stats:
28 normal updates / 3 forced updates / 0 dangerous updates
n_neigh_min: 0 / n_neigh_max: 137 / n_neigh_avg: 51.067
shortest rebuild period: 6
-- Cell list stats:
Dimension: 27, 27, 27
n_min    : 0 / n_max: 38 / n_avg: 0.152416
** run complete **
hoomd_sim.py:134  |      run(params['steps_per_extrude'])
** starting run **
Time 00:12:27 | Step 61201 / 61201 | TPS 83.1251 | ETA 00:00:00
Average TPS: 83.1213
---------
-- Neighborlist stats:
27 normal updates / 3 forced updates / 0 dangerous updates
n_neigh_min: 0 / n_neigh_max: 137 / n_neigh_avg: 50.384
shortest rebuild period: 6
-- Cell list stats:
Dimension: 27, 27, 27
n_min    : 0 / n_max: 39 / n_avg: 0.152416
** run complete **
hoomd_sim.py:134  |      run(params['steps_per_extrude'])
** starting run **
Time 00:12:30 | Step 61401 / 61401 | TPS 82.3899 | ETA 00:00:00
Average TPS: 82.3861
---------
-- Neighborlist stats:
28 normal updates / 3 forced updates / 0 dangerous updates
n_neigh_min: 0 / n_neigh_max: 136 / n_neigh_avg: 50.57
shortest rebuild period: 6
-- Cell list stats:
Dimension: 27, 27, 27
n_min    : 0 / n_max: 38 / n_avg: 0.152416
** run complete **
hoomd_sim.py:134  |      run(params['steps_per_extrude'])
** starting run **
Time 00:12:32 | Step 61601 / 61601 | TPS 81.6015 | ETA 00:00:00
Average TPS: 81.5978
---------
-- Neighborlist stats:
28 normal updates / 3 forced updates / 0 dangerous updates
n_neigh_min: 0 / n_neigh_max: 139 / n_neigh_avg: 50.8903
shortest rebuild period: 6
-- Cell list stats:
Dimension: 27, 27, 27
n_min    : 0 / n_max: 41 / n_avg: 0.152416
** run complete **
hoomd_sim.py:134  |      run(params['steps_per_extrude'])
** starting run **
Time 00:12:35 | Step 61801 / 61801 | TPS 80.3046 | ETA 00:00:00
Average TPS: 80.3012
---------
-- Neighborlist stats:
29 normal updates / 3 forced updates / 0 dangerous updates
n_neigh_min: 0 / n_neigh_max: 130 / n_neigh_avg: 50.9427
shortest rebuild period: 6
-- Cell list stats:
Dimension: 27, 27, 27
n_min    : 0 / n_max: 38 / n_avg: 0.152416
** run complete **
hoomd_sim.py:134  |      run(params['steps_per_extrude'])
** starting run **
Time 00:12:37 | Step 62001 / 62001 | TPS 82.0854 | ETA 00:00:00
Average TPS: 82.0817
---------
-- Neighborlist stats:
28 normal updates / 3 forced updates / 0 dangerous updates
n_neigh_min: 0 / n_neigh_max: 132 / n_neigh_avg: 50.626
shortest rebuild period: 5
-- Cell list stats:
Dimension: 27, 27, 27
n_min    : 0 / n_max: 39 / n_avg: 0.152416
** run complete **
hoomd_sim.py:134  |      run(params['steps_per_extrude'])
** starting run **
Time 00:12:40 | Step 62201 / 62201 | TPS 82.1596 | ETA 00:00:00
Average TPS: 82.1558
---------
-- Neighborlist stats:
28 normal updates / 3 forced updates / 0 dangerous updates
n_neigh_min: 0 / n_neigh_max: 134 / n_neigh_avg: 50.4507
shortest rebuild period: 6
-- Cell list stats:
Dimension: 27, 27, 27
n_min    : 0 / n_max: 39 / n_avg: 0.152416
** run complete **
hoomd_sim.py:134  |      run(params['steps_per_extrude'])
** starting run **
Time 00:12:42 | Step 62401 / 62401 | TPS 83.739 | ETA 00:00:00
Average TPS: 83.7352
---------
-- Neighborlist stats:
27 normal updates / 3 forced updates / 0 dangerous updates
n_neigh_min: 0 / n_neigh_max: 131 / n_neigh_avg: 50.1103
shortest rebuild period: 6
-- Cell list stats:
Dimension: 27, 27, 27
n_min    : 0 / n_max: 38 / n_avg: 0.152416
** run complete **
hoomd_sim.py:134  |      run(params['steps_per_extrude'])
** starting run **
Time 00:12:45 | Step 62601 / 62601 | TPS 73.822 | ETA 00:00:00
Average TPS: 73.819
---------
-- Neighborlist stats:
27 normal updates / 3 forced updates / 0 dangerous updates
n_neigh_min: 0 / n_neigh_max: 137 / n_neigh_avg: 50.7463
shortest rebuild period: 6
-- Cell list stats:
Dimension: 27, 27, 27
n_min    : 0 / n_max: 40 / n_avg: 0.152416
** run complete **
hoomd_sim.py:134  |      run(params['steps_per_extrude'])
** starting run **
Time 00:12:48 | Step 62801 / 62801 | TPS 80.5154 | ETA 00:00:00
Average TPS: 80.5117
---------
-- Neighborlist stats:
29 normal updates / 3 forced updates / 0 dangerous updates
n_neigh_min: 0 / n_neigh_max: 138 / n_neigh_avg: 50.8923
shortest rebuild period: 6
-- Cell list stats:
Dimension: 27, 27, 27
n_min    : 0 / n_max: 38 / n_avg: 0.152416
** run complete **
hoomd_sim.py:134  |      run(params['steps_per_extrude'])
** starting run **
Time 00:12:50 | Step 63001 / 63001 | TPS 82.9298 | ETA 00:00:00
Average TPS: 82.9265
---------
-- Neighborlist stats:
27 normal updates / 3 forced updates / 0 dangerous updates
n_neigh_min: 0 / n_neigh_max: 139 / n_neigh_avg: 51.0117
shortest rebuild period: 6
-- Cell list stats:
Dimension: 27, 27, 27
n_min    : 0 / n_max: 39 / n_avg: 0.152416
** run complete **
hoomd_sim.py:134  |      run(params['steps_per_extrude'])
** starting run **
Time 00:12:52 | Step 63201 / 63201 | TPS 81.8634 | ETA 00:00:00
Average TPS: 81.8597
---------
-- Neighborlist stats:
28 normal updates / 3 forced updates / 0 dangerous updates
n_neigh_min: 0 / n_neigh_max: 137 / n_neigh_avg: 51.446
shortest rebuild period: 6
-- Cell list stats:
Dimension: 27, 27, 27
n_min    : 0 / n_max: 43 / n_avg: 0.152416
** run complete **
hoomd_sim.py:134  |      run(params['steps_per_extrude'])
** starting run **
Time 00:12:55 | Step 63401 / 63401 | TPS 81.053 | ETA 00:00:00
Average TPS: 81.0494
---------
-- Neighborlist stats:
28 normal updates / 3 forced updates / 0 dangerous updates
n_neigh_min: 0 / n_neigh_max: 134 / n_neigh_avg: 51.3413
shortest rebuild period: 6
-- Cell list stats:
Dimension: 27, 27, 27
n_min    : 0 / n_max: 39 / n_avg: 0.152416
** run complete **
hoomd_sim.py:134  |      run(params['steps_per_extrude'])
** starting run **
Time 00:12:57 | Step 63601 / 63601 | TPS 83.0022 | ETA 00:00:00
Average TPS: 82.9983
---------
-- Neighborlist stats:
27 normal updates / 3 forced updates / 0 dangerous updates
n_neigh_min: 0 / n_neigh_max: 144 / n_neigh_avg: 50.7673
shortest rebuild period: 6
-- Cell list stats:
Dimension: 27, 27, 27
n_min    : 0 / n_max: 39 / n_avg: 0.152416
** run complete **
hoomd_sim.py:134  |      run(params['steps_per_extrude'])
** starting run **
Time 00:13:00 | Step 63801 / 63801 | TPS 82.8868 | ETA 00:00:00
Average TPS: 82.883
---------
-- Neighborlist stats:
27 normal updates / 3 forced updates / 0 dangerous updates
n_neigh_min: 0 / n_neigh_max: 137 / n_neigh_avg: 51.464
shortest rebuild period: 6
-- Cell list stats:
Dimension: 27, 27, 27
n_min    : 0 / n_max: 41 / n_avg: 0.152416
** run complete **
hoomd_sim.py:134  |      run(params['steps_per_extrude'])
** starting run **
Time 00:13:02 | Step 64001 / 64001 | TPS 82.2738 | ETA 00:00:00
Average TPS: 82.2696
---------
-- Neighborlist stats:
27 normal updates / 3 forced updates / 0 dangerous updates
n_neigh_min: 0 / n_neigh_max: 147 / n_neigh_avg: 51.927
shortest rebuild period: 6
-- Cell list stats:
Dimension: 27, 27, 27
n_min    : 0 / n_max: 39 / n_avg: 0.152416
** run complete **
hoomd_sim.py:134  |      run(params['steps_per_extrude'])
** starting run **
Time 00:13:05 | Step 64201 / 64201 | TPS 81.8229 | ETA 00:00:00
Average TPS: 81.8193
---------
-- Neighborlist stats:
27 normal updates / 3 forced updates / 0 dangerous updates
n_neigh_min: 0 / n_neigh_max: 137 / n_neigh_avg: 52.3127
shortest rebuild period: 6
-- Cell list stats:
Dimension: 27, 27, 27
n_min    : 0 / n_max: 40 / n_avg: 0.152416
** run complete **
hoomd_sim.py:134  |      run(params['steps_per_extrude'])
** starting run **
Time 00:13:07 | Step 64401 / 64401 | TPS 80.9787 | ETA 00:00:00
Average TPS: 80.9751
---------
-- Neighborlist stats:
28 normal updates / 3 forced updates / 0 dangerous updates
n_neigh_min: 0 / n_neigh_max: 134 / n_neigh_avg: 51.5297
shortest rebuild period: 6
-- Cell list stats:
Dimension: 27, 27, 27
n_min    : 0 / n_max: 41 / n_avg: 0.152416
** run complete **
hoomd_sim.py:134  |      run(params['steps_per_extrude'])
** starting run **
Time 00:13:10 | Step 64601 / 64601 | TPS 82.4958 | ETA 00:00:00
Average TPS: 82.4921
---------
-- Neighborlist stats:
28 normal updates / 3 forced updates / 0 dangerous updates
n_neigh_min: 0 / n_neigh_max: 135 / n_neigh_avg: 50.079
shortest rebuild period: 6
-- Cell list stats:
Dimension: 27, 27, 27
n_min    : 0 / n_max: 40 / n_avg: 0.152416
** run complete **
hoomd_sim.py:134  |      run(params['steps_per_extrude'])
** starting run **
Time 00:13:12 | Step 64801 / 64801 | TPS 83.2214 | ETA 00:00:00
Average TPS: 83.2176
---------
-- Neighborlist stats:
28 normal updates / 3 forced updates / 0 dangerous updates
n_neigh_min: 0 / n_neigh_max: 137 / n_neigh_avg: 50.3967
shortest rebuild period: 6
-- Cell list stats:
Dimension: 27, 27, 27
n_min    : 0 / n_max: 39 / n_avg: 0.152416
** run complete **
hoomd_sim.py:134  |      run(params['steps_per_extrude'])
** starting run **
Time 00:13:15 | Step 65001 / 65001 | TPS 82.8094 | ETA 00:00:00
Average TPS: 82.8057
---------
-- Neighborlist stats:
28 normal updates / 3 forced updates / 0 dangerous updates
n_neigh_min: 0 / n_neigh_max: 137 / n_neigh_avg: 50.698
shortest rebuild period: 6
-- Cell list stats:
Dimension: 27, 27, 27
n_min    : 0 / n_max: 38 / n_avg: 0.152416
** run complete **
hoomd_sim.py:134  |      run(params['steps_per_extrude'])
** starting run **
Time 00:13:17 | Step 65201 / 65201 | TPS 80.5645 | ETA 00:00:00
Average TPS: 80.5599
---------
-- Neighborlist stats:
29 normal updates / 3 forced updates / 0 dangerous updates
n_neigh_min: 0 / n_neigh_max: 141 / n_neigh_avg: 51.52
shortest rebuild period: 5
-- Cell list stats:
Dimension: 27, 27, 27
n_min    : 0 / n_max: 41 / n_avg: 0.152416
** run complete **
hoomd_sim.py:134  |      run(params['steps_per_extrude'])
** starting run **
Time 00:13:20 | Step 65401 / 65401 | TPS 81.2086 | ETA 00:00:00
Average TPS: 81.205
---------
-- Neighborlist stats:
28 normal updates / 3 forced updates / 0 dangerous updates
n_neigh_min: 0 / n_neigh_max: 138 / n_neigh_avg: 51.3447
shortest rebuild period: 6
-- Cell list stats:
Dimension: 27, 27, 27
n_min    : 0 / n_max: 38 / n_avg: 0.152416
** run complete **
hoomd_sim.py:134  |      run(params['steps_per_extrude'])
** starting run **
Time 00:13:22 | Step 65601 / 65601 | TPS 81.1302 | ETA 00:00:00
Average TPS: 81.1265
---------
-- Neighborlist stats:
28 normal updates / 3 forced updates / 0 dangerous updates
n_neigh_min: 0 / n_neigh_max: 141 / n_neigh_avg: 51.709
shortest rebuild period: 6
-- Cell list stats:
Dimension: 27, 27, 27
n_min    : 0 / n_max: 43 / n_avg: 0.152416
** run complete **
hoomd_sim.py:134  |      run(params['steps_per_extrude'])
** starting run **
Time 00:13:25 | Step 65801 / 65801 | TPS 81.0304 | ETA 00:00:00
Average TPS: 81.026
---------
-- Neighborlist stats:
28 normal updates / 3 forced updates / 0 dangerous updates
n_neigh_min: 0 / n_neigh_max: 135 / n_neigh_avg: 51.184
shortest rebuild period: 6
-- Cell list stats:
Dimension: 27, 27, 27
n_min    : 0 / n_max: 42 / n_avg: 0.152416
** run complete **
hoomd_sim.py:134  |      run(params['steps_per_extrude'])
** starting run **
Time 00:13:28 | Step 66001 / 66001 | TPS 75.3092 | ETA 00:00:00
Average TPS: 75.3062
---------
-- Neighborlist stats:
28 normal updates / 3 forced updates / 0 dangerous updates
n_neigh_min: 0 / n_neigh_max: 131 / n_neigh_avg: 51.0203
shortest rebuild period: 6
-- Cell list stats:
Dimension: 27, 27, 27
n_min    : 0 / n_max: 41 / n_avg: 0.152416
** run complete **
hoomd_sim.py:134  |      run(params['steps_per_extrude'])
** starting run **
Time 00:13:30 | Step 66201 / 66201 | TPS 80.9553 | ETA 00:00:00
Average TPS: 80.9515
---------
-- Neighborlist stats:
29 normal updates / 3 forced updates / 0 dangerous updates
n_neigh_min: 0 / n_neigh_max: 131 / n_neigh_avg: 51.0407
shortest rebuild period: 6
-- Cell list stats:
Dimension: 27, 27, 27
n_min    : 0 / n_max: 41 / n_avg: 0.152416
** run complete **
hoomd_sim.py:134  |      run(params['steps_per_extrude'])
** starting run **
Time 00:13:33 | Step 66401 / 66401 | TPS 82.0715 | ETA 00:00:00
Average TPS: 82.0672
---------
-- Neighborlist stats:
28 normal updates / 3 forced updates / 0 dangerous updates
n_neigh_min: 0 / n_neigh_max: 133 / n_neigh_avg: 51.1187
shortest rebuild period: 6
-- Cell list stats:
Dimension: 27, 27, 27
n_min    : 0 / n_max: 39 / n_avg: 0.152416
** run complete **
hoomd_sim.py:134  |      run(params['steps_per_extrude'])
** starting run **
Time 00:13:35 | Step 66601 / 66601 | TPS 81.6416 | ETA 00:00:00
Average TPS: 81.6378
---------
-- Neighborlist stats:
28 normal updates / 3 forced updates / 0 dangerous updates
n_neigh_min: 0 / n_neigh_max: 133 / n_neigh_avg: 51.246
shortest rebuild period: 6
-- Cell list stats:
Dimension: 27, 27, 27
n_min    : 0 / n_max: 41 / n_avg: 0.152416
** run complete **
hoomd_sim.py:134  |      run(params['steps_per_extrude'])
** starting run **
Time 00:13:38 | Step 66801 / 66801 | TPS 80.7221 | ETA 00:00:00
Average TPS: 80.7184
---------
-- Neighborlist stats:
28 normal updates / 3 forced updates / 0 dangerous updates
n_neigh_min: 0 / n_neigh_max: 135 / n_neigh_avg: 52.1077
shortest rebuild period: 6
-- Cell list stats:
Dimension: 27, 27, 27
n_min    : 0 / n_max: 38 / n_avg: 0.152416
** run complete **
hoomd_sim.py:134  |      run(params['steps_per_extrude'])
** starting run **
Time 00:13:40 | Step 67001 / 67001 | TPS 81.2064 | ETA 00:00:00
Average TPS: 81.202
---------
-- Neighborlist stats:
28 normal updates / 3 forced updates / 0 dangerous updates
n_neigh_min: 0 / n_neigh_max: 140 / n_neigh_avg: 51.3297
shortest rebuild period: 6
-- Cell list stats:
Dimension: 27, 27, 27
n_min    : 0 / n_max: 40 / n_avg: 0.152416
** run complete **
hoomd_sim.py:134  |      run(params['steps_per_extrude'])
** starting run **
Time 00:13:43 | Step 67201 / 67201 | TPS 82.2239 | ETA 00:00:00
Average TPS: 82.2201
---------
-- Neighborlist stats:
28 normal updates / 3 forced updates / 0 dangerous updates
n_neigh_min: 0 / n_neigh_max: 141 / n_neigh_avg: 50.8013
shortest rebuild period: 6
-- Cell list stats:
Dimension: 27, 27, 27
n_min    : 0 / n_max: 41 / n_avg: 0.152416
** run complete **
hoomd_sim.py:134  |      run(params['steps_per_extrude'])
** starting run **
Time 00:13:45 | Step 67401 / 67401 | TPS 82.1115 | ETA 00:00:00
Average TPS: 82.1078
---------
-- Neighborlist stats:
28 normal updates / 3 forced updates / 0 dangerous updates
n_neigh_min: 0 / n_neigh_max: 140 / n_neigh_avg: 51.352
shortest rebuild period: 6
-- Cell list stats:
Dimension: 27, 27, 27
n_min    : 0 / n_max: 42 / n_avg: 0.152416
** run complete **
hoomd_sim.py:134  |      run(params['steps_per_extrude'])
** starting run **
Time 00:13:47 | Step 67601 / 67601 | TPS 82.4227 | ETA 00:00:00
Average TPS: 82.4193
---------
-- Neighborlist stats:
28 normal updates / 3 forced updates / 0 dangerous updates
n_neigh_min: 0 / n_neigh_max: 146 / n_neigh_avg: 50.7403
shortest rebuild period: 6
-- Cell list stats:
Dimension: 27, 27, 27
n_min    : 0 / n_max: 40 / n_avg: 0.152416
** run complete **
hoomd_sim.py:134  |      run(params['steps_per_extrude'])
** starting run **
Time 00:13:50 | Step 67801 / 67801 | TPS 83.8143 | ETA 00:00:00
Average TPS: 83.8103
---------
-- Neighborlist stats:
27 normal updates / 3 forced updates / 0 dangerous updates
n_neigh_min: 0 / n_neigh_max: 136 / n_neigh_avg: 50.862
shortest rebuild period: 5
-- Cell list stats:
Dimension: 27, 27, 27
n_min    : 0 / n_max: 38 / n_avg: 0.152416
** run complete **
hoomd_sim.py:134  |      run(params['steps_per_extrude'])
** starting run **
Time 00:13:52 | Step 68001 / 68001 | TPS 81.2076 | ETA 00:00:00
Average TPS: 81.204
---------
-- Neighborlist stats:
29 normal updates / 3 forced updates / 0 dangerous updates
n_neigh_min: 0 / n_neigh_max: 132 / n_neigh_avg: 51.0193
shortest rebuild period: 6
-- Cell list stats:
Dimension: 27, 27, 27
n_min    : 0 / n_max: 39 / n_avg: 0.152416
** run complete **
hoomd_sim.py:134  |      run(params['steps_per_extrude'])
** starting run **
Time 00:13:55 | Step 68201 / 68201 | TPS 82.1761 | ETA 00:00:00
Average TPS: 82.1724
---------
-- Neighborlist stats:
28 normal updates / 3 forced updates / 0 dangerous updates
n_neigh_min: 0 / n_neigh_max: 134 / n_neigh_avg: 50.5593
shortest rebuild period: 6
-- Cell list stats:
Dimension: 27, 27, 27
n_min    : 0 / n_max: 40 / n_avg: 0.152416
** run complete **
hoomd_sim.py:134  |      run(params['steps_per_extrude'])
** starting run **
Time 00:13:57 | Step 68401 / 68401 | TPS 84.2094 | ETA 00:00:00
Average TPS: 84.2056
---------
-- Neighborlist stats:
27 normal updates / 3 forced updates / 0 dangerous updates
n_neigh_min: 0 / n_neigh_max: 140 / n_neigh_avg: 50.488
shortest rebuild period: 6
-- Cell list stats:
Dimension: 27, 27, 27
n_min    : 0 / n_max: 39 / n_avg: 0.152416
** run complete **
hoomd_sim.py:134  |      run(params['steps_per_extrude'])
** starting run **
Time 00:14:00 | Step 68601 / 68601 | TPS 81.3104 | ETA 00:00:00
Average TPS: 81.3068
---------
-- Neighborlist stats:
29 normal updates / 3 forced updates / 0 dangerous updates
n_neigh_min: 0 / n_neigh_max: 142 / n_neigh_avg: 51.022
shortest rebuild period: 5
-- Cell list stats:
Dimension: 27, 27, 27
n_min    : 0 / n_max: 40 / n_avg: 0.152416
** run complete **
hoomd_sim.py:134  |      run(params['steps_per_extrude'])
** starting run **
Time 00:14:02 | Step 68801 / 68801 | TPS 83.4301 | ETA 00:00:00
Average TPS: 83.4262
---------
-- Neighborlist stats:
27 normal updates / 3 forced updates / 0 dangerous updates
n_neigh_min: 0 / n_neigh_max: 132 / n_neigh_avg: 50.9907
shortest rebuild period: 6
-- Cell list stats:
Dimension: 27, 27, 27
n_min    : 0 / n_max: 41 / n_avg: 0.152416
** run complete **
hoomd_sim.py:134  |      run(params['steps_per_extrude'])
** starting run **
Time 00:14:05 | Step 69001 / 69001 | TPS 81.4241 | ETA 00:00:00
Average TPS: 81.4203
---------
-- Neighborlist stats:
29 normal updates / 3 forced updates / 0 dangerous updates
n_neigh_min: 0 / n_neigh_max: 137 / n_neigh_avg: 50.5333
shortest rebuild period: 5
-- Cell list stats:
Dimension: 27, 27, 27
n_min    : 0 / n_max: 43 / n_avg: 0.152416
** run complete **
hoomd_sim.py:134  |      run(params['steps_per_extrude'])
** starting run **
Time 00:14:07 | Step 69201 / 69201 | TPS 82.332 | ETA 00:00:00
Average TPS: 82.3283
---------
-- Neighborlist stats:
28 normal updates / 3 forced updates / 0 dangerous updates
n_neigh_min: 0 / n_neigh_max: 143 / n_neigh_avg: 51.515
shortest rebuild period: 6
-- Cell list stats:
Dimension: 27, 27, 27
n_min    : 0 / n_max: 40 / n_avg: 0.152416
** run complete **
hoomd_sim.py:134  |      run(params['steps_per_extrude'])
** starting run **
Time 00:14:10 | Step 69401 / 69401 | TPS 80.8098 | ETA 00:00:00
Average TPS: 80.8062
---------
-- Neighborlist stats:
28 normal updates / 3 forced updates / 0 dangerous updates
n_neigh_min: 0 / n_neigh_max: 139 / n_neigh_avg: 51.658
shortest rebuild period: 6
-- Cell list stats:
Dimension: 27, 27, 27
n_min    : 0 / n_max: 39 / n_avg: 0.152416
** run complete **
hoomd_sim.py:134  |      run(params['steps_per_extrude'])
** starting run **
Time 00:14:12 | Step 69601 / 69601 | TPS 81.5607 | ETA 00:00:00
Average TPS: 81.557
---------
-- Neighborlist stats:
28 normal updates / 3 forced updates / 0 dangerous updates
n_neigh_min: 0 / n_neigh_max: 140 / n_neigh_avg: 51.1993
shortest rebuild period: 6
-- Cell list stats:
Dimension: 27, 27, 27
n_min    : 0 / n_max: 40 / n_avg: 0.152416
** run complete **
hoomd_sim.py:134  |      run(params['steps_per_extrude'])
** starting run **
Time 00:14:15 | Step 69801 / 69801 | TPS 81.7774 | ETA 00:00:00
Average TPS: 81.7737
---------
-- Neighborlist stats:
28 normal updates / 3 forced updates / 0 dangerous updates
n_neigh_min: 0 / n_neigh_max: 137 / n_neigh_avg: 50.646
shortest rebuild period: 6
-- Cell list stats:
Dimension: 27, 27, 27
n_min    : 0 / n_max: 39 / n_avg: 0.152416
** run complete **
hoomd_sim.py:134  |      run(params['steps_per_extrude'])
** starting run **
Time 00:14:17 | Step 70001 / 70001 | TPS 81.9977 | ETA 00:00:00
Average TPS: 81.994
---------
-- Neighborlist stats:
28 normal updates / 3 forced updates / 0 dangerous updates
n_neigh_min: 0 / n_neigh_max: 129 / n_neigh_avg: 51.1197
shortest rebuild period: 6
-- Cell list stats:
Dimension: 27, 27, 27
n_min    : 0 / n_max: 39 / n_avg: 0.152416
** run complete **
hoomd_sim.py:134  |      run(params['steps_per_extrude'])
** starting run **
Time 00:14:20 | Step 70201 / 70201 | TPS 82.1695 | ETA 00:00:00
Average TPS: 82.1658
---------
-- Neighborlist stats:
28 normal updates / 3 forced updates / 0 dangerous updates
n_neigh_min: 0 / n_neigh_max: 134 / n_neigh_avg: 51.0427
shortest rebuild period: 6
-- Cell list stats:
Dimension: 27, 27, 27
n_min    : 0 / n_max: 40 / n_avg: 0.152416
** run complete **
hoomd_sim.py:134  |      run(params['steps_per_extrude'])
** starting run **
Time 00:14:22 | Step 70401 / 70401 | TPS 80.7949 | ETA 00:00:00
Average TPS: 80.7909
---------
-- Neighborlist stats:
29 normal updates / 3 forced updates / 0 dangerous updates
n_neigh_min: 0 / n_neigh_max: 136 / n_neigh_avg: 51.5913
shortest rebuild period: 6
-- Cell list stats:
Dimension: 27, 27, 27
n_min    : 0 / n_max: 39 / n_avg: 0.152416
** run complete **
hoomd_sim.py:134  |      run(params['steps_per_extrude'])
** starting run **
Time 00:14:25 | Step 70601 / 70601 | TPS 80.3773 | ETA 00:00:00
Average TPS: 80.3729
---------
-- Neighborlist stats:
29 normal updates / 3 forced updates / 0 dangerous updates
n_neigh_min: 0 / n_neigh_max: 132 / n_neigh_avg: 51.0813
shortest rebuild period: 5
-- Cell list stats:
Dimension: 27, 27, 27
n_min    : 0 / n_max: 40 / n_avg: 0.152416
** run complete **
hoomd_sim.py:134  |      run(params['steps_per_extrude'])
** starting run **
Time 00:14:27 | Step 70801 / 70801 | TPS 82.0276 | ETA 00:00:00
Average TPS: 82.0238
---------
-- Neighborlist stats:
28 normal updates / 3 forced updates / 0 dangerous updates
n_neigh_min: 0 / n_neigh_max: 129 / n_neigh_avg: 50.891
shortest rebuild period: 6
-- Cell list stats:
Dimension: 27, 27, 27
n_min    : 0 / n_max: 40 / n_avg: 0.152416
** run complete **
hoomd_sim.py:134  |      run(params['steps_per_extrude'])
** starting run **
Time 00:14:30 | Step 71001 / 71001 | TPS 82.9159 | ETA 00:00:00
Average TPS: 82.9122
---------
-- Neighborlist stats:
27 normal updates / 3 forced updates / 0 dangerous updates
n_neigh_min: 0 / n_neigh_max: 145 / n_neigh_avg: 50.9877
shortest rebuild period: 6
-- Cell list stats:
Dimension: 27, 27, 27
n_min    : 0 / n_max: 42 / n_avg: 0.152416
** run complete **
hoomd_sim.py:134  |      run(params['steps_per_extrude'])
** starting run **
Time 00:14:32 | Step 71201 / 71201 | TPS 81.5996 | ETA 00:00:00
Average TPS: 81.5958
---------
-- Neighborlist stats:
29 normal updates / 3 forced updates / 0 dangerous updates
n_neigh_min: 0 / n_neigh_max: 127 / n_neigh_avg: 50.1247
shortest rebuild period: 6
-- Cell list stats:
Dimension: 27, 27, 27
n_min    : 0 / n_max: 39 / n_avg: 0.152416
** run complete **
hoomd_sim.py:134  |      run(params['steps_per_extrude'])
** starting run **
Time 00:14:35 | Step 71401 / 71401 | TPS 83.0023 | ETA 00:00:00
Average TPS: 82.9986
---------
-- Neighborlist stats:
28 normal updates / 3 forced updates / 0 dangerous updates
n_neigh_min: 0 / n_neigh_max: 128 / n_neigh_avg: 50.4733
shortest rebuild period: 6
-- Cell list stats:
Dimension: 27, 27, 27
n_min    : 0 / n_max: 40 / n_avg: 0.152416
** run complete **
hoomd_sim.py:134  |      run(params['steps_per_extrude'])
** starting run **
Time 00:14:37 | Step 71601 / 71601 | TPS 82.1891 | ETA 00:00:00
Average TPS: 82.1853
---------
-- Neighborlist stats:
28 normal updates / 3 forced updates / 0 dangerous updates
n_neigh_min: 0 / n_neigh_max: 139 / n_neigh_avg: 51.406
shortest rebuild period: 6
-- Cell list stats:
Dimension: 27, 27, 27
n_min    : 0 / n_max: 40 / n_avg: 0.152416
** run complete **
hoomd_sim.py:134  |      run(params['steps_per_extrude'])
** starting run **
Time 00:14:40 | Step 71801 / 71801 | TPS 80.2141 | ETA 00:00:00
Average TPS: 80.2106
---------
-- Neighborlist stats:
29 normal updates / 3 forced updates / 0 dangerous updates
n_neigh_min: 0 / n_neigh_max: 135 / n_neigh_avg: 51.6287
shortest rebuild period: 6
-- Cell list stats:
Dimension: 27, 27, 27
n_min    : 0 / n_max: 40 / n_avg: 0.152416
** run complete **
hoomd_sim.py:134  |      run(params['steps_per_extrude'])
** starting run **
Time 00:14:42 | Step 72001 / 72001 | TPS 81.4796 | ETA 00:00:00
Average TPS: 81.4761
---------
-- Neighborlist stats:
28 normal updates / 3 forced updates / 0 dangerous updates
n_neigh_min: 0 / n_neigh_max: 138 / n_neigh_avg: 50.91
shortest rebuild period: 6
-- Cell list stats:
Dimension: 27, 27, 27
n_min    : 0 / n_max: 41 / n_avg: 0.152416
** run complete **
hoomd_sim.py:134  |      run(params['steps_per_extrude'])
** starting run **
Time 00:14:45 | Step 72201 / 72201 | TPS 82.8165 | ETA 00:00:00
Average TPS: 82.8127
---------
-- Neighborlist stats:
28 normal updates / 3 forced updates / 0 dangerous updates
n_neigh_min: 0 / n_neigh_max: 138 / n_neigh_avg: 50.396
shortest rebuild period: 6
-- Cell list stats:
Dimension: 27, 27, 27
n_min    : 0 / n_max: 40 / n_avg: 0.152416
** run complete **
hoomd_sim.py:134  |      run(params['steps_per_extrude'])
** starting run **
Time 00:14:47 | Step 72401 / 72401 | TPS 82.5725 | ETA 00:00:00
Average TPS: 82.5688
---------
-- Neighborlist stats:
28 normal updates / 3 forced updates / 0 dangerous updates
n_neigh_min: 0 / n_neigh_max: 129 / n_neigh_avg: 50.7657
shortest rebuild period: 6
-- Cell list stats:
Dimension: 27, 27, 27
n_min    : 0 / n_max: 40 / n_avg: 0.152416
** run complete **
hoomd_sim.py:134  |      run(params['steps_per_extrude'])
** starting run **
Time 00:14:50 | Step 72601 / 72601 | TPS 83.8018 | ETA 00:00:00
Average TPS: 83.7979
---------
-- Neighborlist stats:
27 normal updates / 3 forced updates / 0 dangerous updates
n_neigh_min: 0 / n_neigh_max: 135 / n_neigh_avg: 50.4537
shortest rebuild period: 6
-- Cell list stats:
Dimension: 27, 27, 27
n_min    : 0 / n_max: 42 / n_avg: 0.152416
** run complete **
hoomd_sim.py:134  |      run(params['steps_per_extrude'])
** starting run **
Time 00:14:52 | Step 72801 / 72801 | TPS 83.9567 | ETA 00:00:00
Average TPS: 83.9528
---------
-- Neighborlist stats:
27 normal updates / 3 forced updates / 0 dangerous updates
n_neigh_min: 0 / n_neigh_max: 134 / n_neigh_avg: 50.817
shortest rebuild period: 6
-- Cell list stats:
Dimension: 27, 27, 27
n_min    : 0 / n_max: 39 / n_avg: 0.152416
** run complete **
hoomd_sim.py:134  |      run(params['steps_per_extrude'])
** starting run **
Time 00:14:54 | Step 73001 / 73001 | TPS 82.3553 | ETA 00:00:00
Average TPS: 82.3516
---------
-- Neighborlist stats:
28 normal updates / 3 forced updates / 0 dangerous updates
n_neigh_min: 0 / n_neigh_max: 131 / n_neigh_avg: 51.1913
shortest rebuild period: 5
-- Cell list stats:
Dimension: 27, 27, 27
n_min    : 0 / n_max: 41 / n_avg: 0.152416
** run complete **
hoomd_sim.py:134  |      run(params['steps_per_extrude'])
** starting run **
Time 00:14:57 | Step 73201 / 73201 | TPS 83.7154 | ETA 00:00:00
Average TPS: 83.7115
---------
-- Neighborlist stats:
27 normal updates / 3 forced updates / 0 dangerous updates
n_neigh_min: 0 / n_neigh_max: 144 / n_neigh_avg: 50.4737
shortest rebuild period: 6
-- Cell list stats:
Dimension: 27, 27, 27
n_min    : 0 / n_max: 40 / n_avg: 0.152416
** run complete **
hoomd_sim.py:134  |      run(params['steps_per_extrude'])
** starting run **
Time 00:14:59 | Step 73401 / 73401 | TPS 83.5975 | ETA 00:00:00
Average TPS: 83.5935
---------
-- Neighborlist stats:
28 normal updates / 3 forced updates / 0 dangerous updates
n_neigh_min: 0 / n_neigh_max: 133 / n_neigh_avg: 50.3653
shortest rebuild period: 6
-- Cell list stats:
Dimension: 27, 27, 27
n_min    : 0 / n_max: 39 / n_avg: 0.152416
** run complete **
hoomd_sim.py:134  |      run(params['steps_per_extrude'])
** starting run **
Time 00:15:02 | Step 73601 / 73601 | TPS 82.8125 | ETA 00:00:00
Average TPS: 82.8087
---------
-- Neighborlist stats:
28 normal updates / 3 forced updates / 0 dangerous updates
n_neigh_min: 0 / n_neigh_max: 138 / n_neigh_avg: 51.2123
shortest rebuild period: 6
-- Cell list stats:
Dimension: 27, 27, 27
n_min    : 0 / n_max: 39 / n_avg: 0.152416
** run complete **
hoomd_sim.py:134  |      run(params['steps_per_extrude'])
** starting run **
Time 00:15:04 | Step 73801 / 73801 | TPS 81.9422 | ETA 00:00:00
Average TPS: 81.9385
---------
-- Neighborlist stats:
28 normal updates / 3 forced updates / 0 dangerous updates
n_neigh_min: 0 / n_neigh_max: 139 / n_neigh_avg: 50.966
shortest rebuild period: 6
-- Cell list stats:
Dimension: 27, 27, 27
n_min    : 0 / n_max: 41 / n_avg: 0.152416
** run complete **
hoomd_sim.py:134  |      run(params['steps_per_extrude'])
** starting run **
Time 00:15:07 | Step 74001 / 74001 | TPS 82.5648 | ETA 00:00:00
Average TPS: 82.5609
---------
-- Neighborlist stats:
28 normal updates / 3 forced updates / 0 dangerous updates
n_neigh_min: 0 / n_neigh_max: 133 / n_neigh_avg: 50.5263
shortest rebuild period: 6
-- Cell list stats:
Dimension: 27, 27, 27
n_min    : 0 / n_max: 40 / n_avg: 0.152416
** run complete **
hoomd_sim.py:134  |      run(params['steps_per_extrude'])
** starting run **
Time 00:15:09 | Step 74201 / 74201 | TPS 81.4445 | ETA 00:00:00
Average TPS: 81.4406
---------
-- Neighborlist stats:
29 normal updates / 3 forced updates / 0 dangerous updates
n_neigh_min: 0 / n_neigh_max: 139 / n_neigh_avg: 51.2303
shortest rebuild period: 5
-- Cell list stats:
Dimension: 27, 27, 27
n_min    : 0 / n_max: 43 / n_avg: 0.152416
** run complete **
hoomd_sim.py:134  |      run(params['steps_per_extrude'])
** starting run **
Time 00:15:12 | Step 74401 / 74401 | TPS 83.3376 | ETA 00:00:00
Average TPS: 83.3339
---------
-- Neighborlist stats:
27 normal updates / 3 forced updates / 0 dangerous updates
n_neigh_min: 0 / n_neigh_max: 138 / n_neigh_avg: 51.1077
shortest rebuild period: 6
-- Cell list stats:
Dimension: 27, 27, 27
n_min    : 0 / n_max: 40 / n_avg: 0.152416
** run complete **
hoomd_sim.py:134  |      run(params['steps_per_extrude'])
** starting run **
Time 00:15:14 | Step 74601 / 74601 | TPS 83.6091 | ETA 00:00:00
Average TPS: 83.6054
---------
-- Neighborlist stats:
27 normal updates / 3 forced updates / 0 dangerous updates
n_neigh_min: 0 / n_neigh_max: 136 / n_neigh_avg: 51.1197
shortest rebuild period: 6
-- Cell list stats:
Dimension: 27, 27, 27
n_min    : 0 / n_max: 44 / n_avg: 0.152416
** run complete **
hoomd_sim.py:134  |      run(params['steps_per_extrude'])
** starting run **
Time 00:15:17 | Step 74801 / 74801 | TPS 82.3723 | ETA 00:00:00
Average TPS: 82.3685
---------
-- Neighborlist stats:
28 normal updates / 3 forced updates / 0 dangerous updates
n_neigh_min: 0 / n_neigh_max: 134 / n_neigh_avg: 50.652
shortest rebuild period: 6
-- Cell list stats:
Dimension: 27, 27, 27
n_min    : 0 / n_max: 38 / n_avg: 0.152416
** run complete **
hoomd_sim.py:134  |      run(params['steps_per_extrude'])
** starting run **
Time 00:15:19 | Step 75001 / 75001 | TPS 82.9705 | ETA 00:00:00
Average TPS: 82.9667
---------
-- Neighborlist stats:
28 normal updates / 3 forced updates / 0 dangerous updates
n_neigh_min: 0 / n_neigh_max: 129 / n_neigh_avg: 50.4477
shortest rebuild period: 6
-- Cell list stats:
Dimension: 27, 27, 27
n_min    : 0 / n_max: 39 / n_avg: 0.152416
** run complete **
hoomd_sim.py:134  |      run(params['steps_per_extrude'])
** starting run **
Time 00:15:22 | Step 75201 / 75201 | TPS 82.6969 | ETA 00:00:00
Average TPS: 82.693
---------
-- Neighborlist stats:
28 normal updates / 3 forced updates / 0 dangerous updates
n_neigh_min: 0 / n_neigh_max: 141 / n_neigh_avg: 51.0433
shortest rebuild period: 6
-- Cell list stats:
Dimension: 27, 27, 27
n_min    : 0 / n_max: 43 / n_avg: 0.152416
** run complete **
hoomd_sim.py:134  |      run(params['steps_per_extrude'])
** starting run **
Time 00:15:24 | Step 75401 / 75401 | TPS 82.0029 | ETA 00:00:00
Average TPS: 81.9983
---------
-- Neighborlist stats:
28 normal updates / 3 forced updates / 0 dangerous updates
n_neigh_min: 0 / n_neigh_max: 137 / n_neigh_avg: 51.3417
shortest rebuild period: 6
-- Cell list stats:
Dimension: 27, 27, 27
n_min    : 0 / n_max: 43 / n_avg: 0.152416
** run complete **
hoomd_sim.py:134  |      run(params['steps_per_extrude'])
** starting run **
Time 00:15:26 | Step 75601 / 75601 | TPS 83.3452 | ETA 00:00:00
Average TPS: 83.3415
---------
-- Neighborlist stats:
27 normal updates / 3 forced updates / 0 dangerous updates
n_neigh_min: 0 / n_neigh_max: 136 / n_neigh_avg: 50.7707
shortest rebuild period: 7
-- Cell list stats:
Dimension: 27, 27, 27
n_min    : 0 / n_max: 42 / n_avg: 0.152416
** run complete **
hoomd_sim.py:134  |      run(params['steps_per_extrude'])
** starting run **
Time 00:15:29 | Step 75801 / 75801 | TPS 84.3213 | ETA 00:00:00
Average TPS: 84.3175
---------
-- Neighborlist stats:
27 normal updates / 3 forced updates / 0 dangerous updates
n_neigh_min: 0 / n_neigh_max: 132 / n_neigh_avg: 50.116
shortest rebuild period: 6
-- Cell list stats:
Dimension: 27, 27, 27
n_min    : 0 / n_max: 39 / n_avg: 0.152416
** run complete **
hoomd_sim.py:134  |      run(params['steps_per_extrude'])
** starting run **
Time 00:15:31 | Step 76001 / 76001 | TPS 83.3081 | ETA 00:00:00
Average TPS: 83.3044
---------
-- Neighborlist stats:
28 normal updates / 3 forced updates / 0 dangerous updates
n_neigh_min: 0 / n_neigh_max: 137 / n_neigh_avg: 50.3427
shortest rebuild period: 6
-- Cell list stats:
Dimension: 27, 27, 27
n_min    : 0 / n_max: 43 / n_avg: 0.152416
** run complete **
hoomd_sim.py:134  |      run(params['steps_per_extrude'])
** starting run **
Time 00:15:34 | Step 76201 / 76201 | TPS 82.6589 | ETA 00:00:00
Average TPS: 82.6551
---------
-- Neighborlist stats:
28 normal updates / 3 forced updates / 0 dangerous updates
n_neigh_min: 0 / n_neigh_max: 138 / n_neigh_avg: 50.9903
shortest rebuild period: 6
-- Cell list stats:
Dimension: 27, 27, 27
n_min    : 0 / n_max: 39 / n_avg: 0.152416
** run complete **
hoomd_sim.py:134  |      run(params['steps_per_extrude'])
** starting run **
Time 00:15:36 | Step 76401 / 76401 | TPS 82.7023 | ETA 00:00:00
Average TPS: 82.6987
---------
-- Neighborlist stats:
28 normal updates / 3 forced updates / 0 dangerous updates
n_neigh_min: 0 / n_neigh_max: 140 / n_neigh_avg: 50.1437
shortest rebuild period: 6
-- Cell list stats:
Dimension: 27, 27, 27
n_min    : 0 / n_max: 38 / n_avg: 0.152416
** run complete **
hoomd_sim.py:134  |      run(params['steps_per_extrude'])
** starting run **
Time 00:15:39 | Step 76601 / 76601 | TPS 83.6153 | ETA 00:00:00
Average TPS: 83.6109
---------
-- Neighborlist stats:
28 normal updates / 3 forced updates / 0 dangerous updates
n_neigh_min: 0 / n_neigh_max: 130 / n_neigh_avg: 50.067
shortest rebuild period: 6
-- Cell list stats:
Dimension: 27, 27, 27
n_min    : 0 / n_max: 41 / n_avg: 0.152416
** run complete **
hoomd_sim.py:134  |      run(params['steps_per_extrude'])
** starting run **
Time 00:15:41 | Step 76801 / 76801 | TPS 78.8947 | ETA 00:00:00
Average TPS: 78.8912
---------
-- Neighborlist stats:
29 normal updates / 3 forced updates / 0 dangerous updates
n_neigh_min: 0 / n_neigh_max: 132 / n_neigh_avg: 50.2387
shortest rebuild period: 5
-- Cell list stats:
Dimension: 27, 27, 27
n_min    : 0 / n_max: 38 / n_avg: 0.152416
** run complete **
hoomd_sim.py:134  |      run(params['steps_per_extrude'])
** starting run **
Time 00:15:44 | Step 77001 / 77001 | TPS 81.9287 | ETA 00:00:00
Average TPS: 81.925
---------
-- Neighborlist stats:
29 normal updates / 3 forced updates / 0 dangerous updates
n_neigh_min: 0 / n_neigh_max: 136 / n_neigh_avg: 49.959
shortest rebuild period: 5
-- Cell list stats:
Dimension: 27, 27, 27
n_min    : 0 / n_max: 39 / n_avg: 0.152416
** run complete **
hoomd_sim.py:134  |      run(params['steps_per_extrude'])
** starting run **
Time 00:15:46 | Step 77201 / 77201 | TPS 80.7569 | ETA 00:00:00
Average TPS: 80.7534
---------
-- Neighborlist stats:
29 normal updates / 3 forced updates / 0 dangerous updates
n_neigh_min: 0 / n_neigh_max: 137 / n_neigh_avg: 50.7073
shortest rebuild period: 6
-- Cell list stats:
Dimension: 27, 27, 27
n_min    : 0 / n_max: 41 / n_avg: 0.152416
** run complete **
hoomd_sim.py:134  |      run(params['steps_per_extrude'])
** starting run **
Time 00:15:49 | Step 77401 / 77401 | TPS 81.8442 | ETA 00:00:00
Average TPS: 81.8406
---------
-- Neighborlist stats:
28 normal updates / 3 forced updates / 0 dangerous updates
n_neigh_min: 0 / n_neigh_max: 138 / n_neigh_avg: 50.3087
shortest rebuild period: 6
-- Cell list stats:
Dimension: 27, 27, 27
n_min    : 0 / n_max: 40 / n_avg: 0.152416
** run complete **
hoomd_sim.py:134  |      run(params['steps_per_extrude'])
** starting run **
Time 00:15:51 | Step 77601 / 77601 | TPS 81.7398 | ETA 00:00:00
Average TPS: 81.7362
---------
-- Neighborlist stats:
28 normal updates / 3 forced updates / 0 dangerous updates
n_neigh_min: 0 / n_neigh_max: 139 / n_neigh_avg: 50.727
shortest rebuild period: 6
-- Cell list stats:
Dimension: 27, 27, 27
n_min    : 0 / n_max: 40 / n_avg: 0.152416
** run complete **
hoomd_sim.py:134  |      run(params['steps_per_extrude'])
** starting run **
Time 00:15:54 | Step 77801 / 77801 | TPS 82.889 | ETA 00:00:00
Average TPS: 82.8852
---------
-- Neighborlist stats:
27 normal updates / 3 forced updates / 0 dangerous updates
n_neigh_min: 0 / n_neigh_max: 139 / n_neigh_avg: 50.6673
shortest rebuild period: 6
-- Cell list stats:
Dimension: 27, 27, 27
n_min    : 0 / n_max: 39 / n_avg: 0.152416
** run complete **
hoomd_sim.py:134  |      run(params['steps_per_extrude'])
** starting run **
Time 00:15:56 | Step 78001 / 78001 | TPS 82.8828 | ETA 00:00:00
Average TPS: 82.8791
---------
-- Neighborlist stats:
27 normal updates / 3 forced updates / 0 dangerous updates
n_neigh_min: 0 / n_neigh_max: 146 / n_neigh_avg: 50.9097
shortest rebuild period: 6
-- Cell list stats:
Dimension: 27, 27, 27
n_min    : 0 / n_max: 39 / n_avg: 0.152416
** run complete **
hoomd_sim.py:134  |      run(params['steps_per_extrude'])
** starting run **
Time 00:15:59 | Step 78201 / 78201 | TPS 80.3094 | ETA 00:00:00
Average TPS: 80.3055
---------
-- Neighborlist stats:
29 normal updates / 3 forced updates / 0 dangerous updates
n_neigh_min: 0 / n_neigh_max: 133 / n_neigh_avg: 50.766
shortest rebuild period: 6
-- Cell list stats:
Dimension: 27, 27, 27
n_min    : 0 / n_max: 39 / n_avg: 0.152416
** run complete **
hoomd_sim.py:134  |      run(params['steps_per_extrude'])
** starting run **
Time 00:16:01 | Step 78401 / 78401 | TPS 82.0014 | ETA 00:00:00
Average TPS: 81.9976
---------
-- Neighborlist stats:
28 normal updates / 3 forced updates / 0 dangerous updates
n_neigh_min: 0 / n_neigh_max: 136 / n_neigh_avg: 50.706
shortest rebuild period: 6
-- Cell list stats:
Dimension: 27, 27, 27
n_min    : 0 / n_max: 40 / n_avg: 0.152416
** run complete **
hoomd_sim.py:134  |      run(params['steps_per_extrude'])
** starting run **
Time 00:16:04 | Step 78601 / 78601 | TPS 81.4875 | ETA 00:00:00
Average TPS: 81.4838
---------
-- Neighborlist stats:
28 normal updates / 3 forced updates / 0 dangerous updates
n_neigh_min: 0 / n_neigh_max: 131 / n_neigh_avg: 50.9413
shortest rebuild period: 6
-- Cell list stats:
Dimension: 27, 27, 27
n_min    : 0 / n_max: 40 / n_avg: 0.152416
** run complete **
hoomd_sim.py:134  |      run(params['steps_per_extrude'])
** starting run **
Time 00:16:06 | Step 78801 / 78801 | TPS 81.7799 | ETA 00:00:00
Average TPS: 81.7762
---------
-- Neighborlist stats:
28 normal updates / 3 forced updates / 0 dangerous updates
n_neigh_min: 0 / n_neigh_max: 134 / n_neigh_avg: 50.5257
shortest rebuild period: 6
-- Cell list stats:
Dimension: 27, 27, 27
n_min    : 0 / n_max: 40 / n_avg: 0.152416
** run complete **
hoomd_sim.py:134  |      run(params['steps_per_extrude'])
** starting run **
Time 00:16:09 | Step 79001 / 79001 | TPS 82.1563 | ETA 00:00:00
Average TPS: 82.1525
---------
-- Neighborlist stats:
28 normal updates / 3 forced updates / 0 dangerous updates
n_neigh_min: 0 / n_neigh_max: 140 / n_neigh_avg: 50.7403
shortest rebuild period: 6
-- Cell list stats:
Dimension: 27, 27, 27
n_min    : 0 / n_max: 39 / n_avg: 0.152416
** run complete **
hoomd_sim.py:134  |      run(params['steps_per_extrude'])
** starting run **
Time 00:16:11 | Step 79201 / 79201 | TPS 81.2311 | ETA 00:00:00
Average TPS: 81.2275
---------
-- Neighborlist stats:
28 normal updates / 3 forced updates / 0 dangerous updates
n_neigh_min: 0 / n_neigh_max: 132 / n_neigh_avg: 51.1397
shortest rebuild period: 6
-- Cell list stats:
Dimension: 27, 27, 27
n_min    : 0 / n_max: 41 / n_avg: 0.152416
** run complete **
hoomd_sim.py:134  |      run(params['steps_per_extrude'])
** starting run **
Time 00:16:14 | Step 79401 / 79401 | TPS 78.239 | ETA 00:00:00
Average TPS: 78.2355
---------
-- Neighborlist stats:
28 normal updates / 3 forced updates / 0 dangerous updates
n_neigh_min: 0 / n_neigh_max: 135 / n_neigh_avg: 50.61
shortest rebuild period: 6
-- Cell list stats:
Dimension: 27, 27, 27
n_min    : 0 / n_max: 41 / n_avg: 0.152416
** run complete **
hoomd_sim.py:134  |      run(params['steps_per_extrude'])
** starting run **
Time 00:16:16 | Step 79601 / 79601 | TPS 82.7731 | ETA 00:00:00
Average TPS: 82.7695
---------
-- Neighborlist stats:
28 normal updates / 3 forced updates / 0 dangerous updates
n_neigh_min: 0 / n_neigh_max: 133 / n_neigh_avg: 50.623
shortest rebuild period: 6
-- Cell list stats:
Dimension: 27, 27, 27
n_min    : 0 / n_max: 40 / n_avg: 0.152416
** run complete **
hoomd_sim.py:134  |      run(params['steps_per_extrude'])
** starting run **
Time 00:16:19 | Step 79801 / 79801 | TPS 81.7013 | ETA 00:00:00
Average TPS: 81.6975
---------
-- Neighborlist stats:
28 normal updates / 3 forced updates / 0 dangerous updates
n_neigh_min: 0 / n_neigh_max: 141 / n_neigh_avg: 51.1037
shortest rebuild period: 6
-- Cell list stats:
Dimension: 27, 27, 27
n_min    : 0 / n_max: 41 / n_avg: 0.152416
** run complete **
hoomd_sim.py:134  |      run(params['steps_per_extrude'])
** starting run **
Time 00:16:21 | Step 80001 / 80001 | TPS 81.3616 | ETA 00:00:00
Average TPS: 81.358
---------
-- Neighborlist stats:
28 normal updates / 3 forced updates / 0 dangerous updates
n_neigh_min: 0 / n_neigh_max: 142 / n_neigh_avg: 50.8923
shortest rebuild period: 6
-- Cell list stats:
Dimension: 27, 27, 27
n_min    : 0 / n_max: 37 / n_avg: 0.152416
** run complete **
hoomd_sim.py:134  |      run(params['steps_per_extrude'])
** starting run **
Time 00:16:24 | Step 80201 / 80201 | TPS 81.3022 | ETA 00:00:00
Average TPS: 81.2977
---------
-- Neighborlist stats:
28 normal updates / 3 forced updates / 0 dangerous updates
n_neigh_min: 0 / n_neigh_max: 131 / n_neigh_avg: 51.0477
shortest rebuild period: 6
-- Cell list stats:
Dimension: 27, 27, 27
n_min    : 0 / n_max: 42 / n_avg: 0.152416
** run complete **
hoomd_sim.py:134  |      run(params['steps_per_extrude'])
** starting run **
Time 00:16:26 | Step 80401 / 80401 | TPS 80.3157 | ETA 00:00:00
Average TPS: 80.3122
---------
-- Neighborlist stats:
29 normal updates / 3 forced updates / 0 dangerous updates
n_neigh_min: 0 / n_neigh_max: 134 / n_neigh_avg: 51.047
shortest rebuild period: 6
-- Cell list stats:
Dimension: 27, 27, 27
n_min    : 0 / n_max: 41 / n_avg: 0.152416
** run complete **
hoomd_sim.py:134  |      run(params['steps_per_extrude'])
** starting run **
Time 00:16:29 | Step 80601 / 80601 | TPS 83.4216 | ETA 00:00:00
Average TPS: 83.4176
---------
-- Neighborlist stats:
27 normal updates / 3 forced updates / 0 dangerous updates
n_neigh_min: 0 / n_neigh_max: 137 / n_neigh_avg: 50.757
shortest rebuild period: 6
-- Cell list stats:
Dimension: 27, 27, 27
n_min    : 0 / n_max: 37 / n_avg: 0.152416
** run complete **
hoomd_sim.py:134  |      run(params['steps_per_extrude'])
** starting run **
Time 00:16:31 | Step 80801 / 80801 | TPS 82.7716 | ETA 00:00:00
Average TPS: 82.7677
---------
-- Neighborlist stats:
27 normal updates / 3 forced updates / 0 dangerous updates
n_neigh_min: 0 / n_neigh_max: 131 / n_neigh_avg: 51.3737
shortest rebuild period: 6
-- Cell list stats:
Dimension: 27, 27, 27
n_min    : 0 / n_max: 42 / n_avg: 0.152416
** run complete **
hoomd_sim.py:134  |      run(params['steps_per_extrude'])
** starting run **
Time 00:16:34 | Step 81001 / 81001 | TPS 81.8981 | ETA 00:00:00
Average TPS: 81.8942
---------
-- Neighborlist stats:
27 normal updates / 3 forced updates / 0 dangerous updates
n_neigh_min: 0 / n_neigh_max: 136 / n_neigh_avg: 52.0193
shortest rebuild period: 6
-- Cell list stats:
Dimension: 27, 27, 27
n_min    : 0 / n_max: 39 / n_avg: 0.152416
** run complete **
hoomd_sim.py:134  |      run(params['steps_per_extrude'])
** starting run **
Time 00:16:36 | Step 81201 / 81201 | TPS 80.2785 | ETA 00:00:00
Average TPS: 80.2751
---------
-- Neighborlist stats:
28 normal updates / 3 forced updates / 0 dangerous updates
n_neigh_min: 0 / n_neigh_max: 137 / n_neigh_avg: 51.7077
shortest rebuild period: 6
-- Cell list stats:
Dimension: 27, 27, 27
n_min    : 0 / n_max: 40 / n_avg: 0.152416
** run complete **
hoomd_sim.py:134  |      run(params['steps_per_extrude'])
** starting run **
Time 00:16:39 | Step 81401 / 81401 | TPS 80.641 | ETA 00:00:00
Average TPS: 80.6374
---------
-- Neighborlist stats:
28 normal updates / 3 forced updates / 0 dangerous updates
n_neigh_min: 0 / n_neigh_max: 135 / n_neigh_avg: 51.6563
shortest rebuild period: 6
-- Cell list stats:
Dimension: 27, 27, 27
n_min    : 0 / n_max: 38 / n_avg: 0.152416
** run complete **
hoomd_sim.py:134  |      run(params['steps_per_extrude'])
** starting run **
Time 00:16:41 | Step 81601 / 81601 | TPS 79.9097 | ETA 00:00:00
Average TPS: 79.9061
---------
-- Neighborlist stats:
28 normal updates / 3 forced updates / 0 dangerous updates
n_neigh_min: 0 / n_neigh_max: 141 / n_neigh_avg: 51.96
shortest rebuild period: 6
-- Cell list stats:
Dimension: 27, 27, 27
n_min    : 0 / n_max: 39 / n_avg: 0.152416
** run complete **
hoomd_sim.py:134  |      run(params['steps_per_extrude'])
** starting run **
Time 00:16:44 | Step 81801 / 81801 | TPS 79.9382 | ETA 00:00:00
Average TPS: 79.9346
---------
-- Neighborlist stats:
28 normal updates / 3 forced updates / 0 dangerous updates
n_neigh_min: 0 / n_neigh_max: 136 / n_neigh_avg: 52.1083
shortest rebuild period: 6
-- Cell list stats:
Dimension: 27, 27, 27
n_min    : 0 / n_max: 39 / n_avg: 0.152416
** run complete **
hoomd_sim.py:134  |      run(params['steps_per_extrude'])
** starting run **
Time 00:16:46 | Step 82001 / 82001 | TPS 80.1494 | ETA 00:00:00
Average TPS: 80.1458
---------
-- Neighborlist stats:
28 normal updates / 3 forced updates / 0 dangerous updates
n_neigh_min: 0 / n_neigh_max: 137 / n_neigh_avg: 51.895
shortest rebuild period: 6
-- Cell list stats:
Dimension: 27, 27, 27
n_min    : 0 / n_max: 39 / n_avg: 0.152416
** run complete **
hoomd_sim.py:134  |      run(params['steps_per_extrude'])
** starting run **
Time 00:16:49 | Step 82201 / 82201 | TPS 80.373 | ETA 00:00:00
Average TPS: 80.3693
---------
-- Neighborlist stats:
28 normal updates / 3 forced updates / 0 dangerous updates
n_neigh_min: 0 / n_neigh_max: 136 / n_neigh_avg: 51.521
shortest rebuild period: 6
-- Cell list stats:
Dimension: 27, 27, 27
n_min    : 0 / n_max: 38 / n_avg: 0.152416
** run complete **
hoomd_sim.py:134  |      run(params['steps_per_extrude'])
** starting run **
Time 00:16:51 | Step 82401 / 82401 | TPS 81.8946 | ETA 00:00:00
Average TPS: 81.8909
---------
-- Neighborlist stats:
27 normal updates / 3 forced updates / 0 dangerous updates
n_neigh_min: 0 / n_neigh_max: 135 / n_neigh_avg: 51.21
shortest rebuild period: 6
-- Cell list stats:
Dimension: 27, 27, 27
n_min    : 0 / n_max: 40 / n_avg: 0.152416
** run complete **
hoomd_sim.py:134  |      run(params['steps_per_extrude'])
** starting run **
Time 00:16:54 | Step 82601 / 82601 | TPS 80.9365 | ETA 00:00:00
Average TPS: 80.9322
---------
-- Neighborlist stats:
28 normal updates / 3 forced updates / 0 dangerous updates
n_neigh_min: 0 / n_neigh_max: 138 / n_neigh_avg: 51.433
shortest rebuild period: 6
-- Cell list stats:
Dimension: 27, 27, 27
n_min    : 0 / n_max: 37 / n_avg: 0.152416
** run complete **
hoomd_sim.py:134  |      run(params['steps_per_extrude'])
** starting run **
Time 00:16:56 | Step 82801 / 82801 | TPS 80.3954 | ETA 00:00:00
Average TPS: 80.3917
---------
-- Neighborlist stats:
28 normal updates / 3 forced updates / 0 dangerous updates
[...]
** run complete **
hoomd_sim.py:134  |      run(params['steps_per_extrude'])
** starting run **
Time 02:54:58 | Step 841201 / 841201 | TPS 82.3066 | ETA 00:00:00
Average TPS: 82.303
---------
-- Neighborlist stats:
28 normal updates / 3 forced updates / 0 dangerous updates
n_neigh_min: 0 / n_neigh_max: 126 / n_neigh_avg: 51.413
shortest rebuild period: 6
-- Cell list stats:
Dimension: 27, 27, 27
n_min    : 0 / n_max: 39 / n_avg: 0.152416
** run complete **
hoomd_sim.py:134  |      run(params['steps_per_extrude'])
** starting run **
Time 02:55:00 | Step 841401 / 841401 | TPS 83.3825 | ETA 00:00:00
Average TPS: 83.3788
---------
-- Neighborlist stats:
27 normal updates / 3 forced updates / 0 dangerous updates
n_neigh_min: 0 / n_neigh_max: 140 / n_neigh_avg: 51.4973
shortest rebuild period: 6
-- Cell list stats:
Dimension: 27, 27, 27
n_min    : 0 / n_max: 42 / n_avg: 0.152416
** run complete **
hoomd_sim.py:134  |      run(params['steps_per_extrude'])
** starting run **
Time 02:55:03 | Step 841601 / 841601 | TPS 69.3493 | ETA 00:00:00
Average TPS: 69.3466
---------
-- Neighborlist stats:
29 normal updates / 3 forced updates / 0 dangerous updates
n_neigh_min: 0 / n_neigh_max: 132 / n_neigh_avg: 51.524
shortest rebuild period: 6
-- Cell list stats:
Dimension: 27, 27, 27
n_min    : 0 / n_max: 40 / n_avg: 0.152416
** run complete **
hoomd_sim.py:134  |      run(params['steps_per_extrude'])
** starting run **
Time 02:55:06 | Step 841801 / 841801 | TPS 81.6896 | ETA 00:00:00
Average TPS: 81.6861
---------
-- Neighborlist stats:
28 normal updates / 3 forced updates / 0 dangerous updates
n_neigh_min: 0 / n_neigh_max: 134 / n_neigh_avg: 51.8437
shortest rebuild period: 6
-- Cell list stats:
Dimension: 27, 27, 27
n_min    : 0 / n_max: 38 / n_avg: 0.152416
** run complete **
hoomd_sim.py:134  |      run(params['steps_per_extrude'])
** starting run **
Time 02:55:08 | Step 842001 / 842001 | TPS 83.3226 | ETA 00:00:00
Average TPS: 83.3188
---------
-- Neighborlist stats:
27 normal updates / 3 forced updates / 0 dangerous updates
n_neigh_min: 0 / n_neigh_max: 127 / n_neigh_avg: 51.372
shortest rebuild period: 6
-- Cell list stats:
Dimension: 27, 27, 27
n_min    : 0 / n_max: 41 / n_avg: 0.152416
** run complete **
hoomd_sim.py:134  |      run(params['steps_per_extrude'])
** starting run **
Time 02:55:11 | Step 842201 / 842201 | TPS 84.6646 | ETA 00:00:00
Average TPS: 84.6608
---------
-- Neighborlist stats:
26 normal updates / 3 forced updates / 0 dangerous updates
n_neigh_min: 0 / n_neigh_max: 140 / n_neigh_avg: 50.8843
shortest rebuild period: 7
-- Cell list stats:
Dimension: 27, 27, 27
n_min    : 0 / n_max: 40 / n_avg: 0.152416
** run complete **
hoomd_sim.py:134  |      run(params['steps_per_extrude'])
** starting run **
Time 02:55:13 | Step 842401 / 842401 | TPS 81.6301 | ETA 00:00:00
Average TPS: 81.6265
---------
-- Neighborlist stats:
29 normal updates / 3 forced updates / 0 dangerous updates
n_neigh_min: 0 / n_neigh_max: 133 / n_neigh_avg: 50.9583
shortest rebuild period: 5
-- Cell list stats:
Dimension: 27, 27, 27
n_min    : 0 / n_max: 38 / n_avg: 0.152416
** run complete **
hoomd_sim.py:134  |      run(params['steps_per_extrude'])
** starting run **
Time 02:55:15 | Step 842601 / 842601 | TPS 82.3242 | ETA 00:00:00
Average TPS: 82.3206
---------
-- Neighborlist stats:
28 normal updates / 3 forced updates / 0 dangerous updates
n_neigh_min: 0 / n_neigh_max: 138 / n_neigh_avg: 51.797
shortest rebuild period: 6
-- Cell list stats:
Dimension: 27, 27, 27
n_min    : 0 / n_max: 39 / n_avg: 0.152416
** run complete **
hoomd_sim.py:134  |      run(params['steps_per_extrude'])
** starting run **
Time 02:55:18 | Step 842801 / 842801 | TPS 80.3838 | ETA 00:00:00
Average TPS: 80.3803
---------
-- Neighborlist stats:
29 normal updates / 3 forced updates / 0 dangerous updates
n_neigh_min: 0 / n_neigh_max: 135 / n_neigh_avg: 51.404
shortest rebuild period: 6
-- Cell list stats:
Dimension: 27, 27, 27
n_min    : 0 / n_max: 39 / n_avg: 0.152416
** run complete **
hoomd_sim.py:134  |      run(params['steps_per_extrude'])
** starting run **
Time 02:55:21 | Step 843001 / 843001 | TPS 82.3124 | ETA 00:00:00
Average TPS: 82.3088
---------
-- Neighborlist stats:
28 normal updates / 3 forced updates / 0 dangerous updates
n_neigh_min: 0 / n_neigh_max: 138 / n_neigh_avg: 51.1817
shortest rebuild period: 6
-- Cell list stats:
Dimension: 27, 27, 27
n_min    : 0 / n_max: 41 / n_avg: 0.152416
** run complete **
hoomd_sim.py:134  |      run(params['steps_per_extrude'])
** starting run **
Time 02:55:23 | Step 843201 / 843201 | TPS 81.7644 | ETA 00:00:00
Average TPS: 81.7599
---------
-- Neighborlist stats:
28 normal updates / 3 forced updates / 0 dangerous updates
n_neigh_min: 0 / n_neigh_max: 135 / n_neigh_avg: 51.345
shortest rebuild period: 6
-- Cell list stats:
Dimension: 27, 27, 27
n_min    : 0 / n_max: 38 / n_avg: 0.152416
** run complete **
hoomd_sim.py:134  |      run(params['steps_per_extrude'])
** starting run **
Time 02:55:25 | Step 843401 / 843401 | TPS 83.1672 | ETA 00:00:00
Average TPS: 83.1635
---------
-- Neighborlist stats:
27 normal updates / 3 forced updates / 0 dangerous updates
n_neigh_min: 0 / n_neigh_max: 139 / n_neigh_avg: 51.7553
shortest rebuild period: 6
-- Cell list stats:
Dimension: 27, 27, 27
n_min    : 0 / n_max: 41 / n_avg: 0.152416
** run complete **
hoomd_sim.py:134  |      run(params['steps_per_extrude'])
** starting run **
Time 02:55:28 | Step 843601 / 843601 | TPS 81.1561 | ETA 00:00:00
Average TPS: 81.1525
---------
-- Neighborlist stats:
28 normal updates / 3 forced updates / 0 dangerous updates
n_neigh_min: 0 / n_neigh_max: 133 / n_neigh_avg: 51.822
shortest rebuild period: 6
-- Cell list stats:
Dimension: 27, 27, 27
n_min    : 0 / n_max: 41 / n_avg: 0.152416
** run complete **
hoomd_sim.py:134  |      run(params['steps_per_extrude'])
** starting run **
Time 02:55:30 | Step 843801 / 843801 | TPS 82.1603 | ETA 00:00:00
Average TPS: 82.1567
---------
-- Neighborlist stats:
28 normal updates / 3 forced updates / 0 dangerous updates
n_neigh_min: 0 / n_neigh_max: 131 / n_neigh_avg: 51.3253
shortest rebuild period: 6
-- Cell list stats:
Dimension: 27, 27, 27
n_min    : 0 / n_max: 39 / n_avg: 0.152416
** run complete **
hoomd_sim.py:134  |      run(params['steps_per_extrude'])
** starting run **
Time 02:55:33 | Step 844001 / 844001 | TPS 82.4603 | ETA 00:00:00
Average TPS: 82.4564
---------
-- Neighborlist stats:
28 normal updates / 3 forced updates / 0 dangerous updates
n_neigh_min: 0 / n_neigh_max: 134 / n_neigh_avg: 51.174
shortest rebuild period: 6
-- Cell list stats:
Dimension: 27, 27, 27
n_min    : 0 / n_max: 43 / n_avg: 0.152416
** run complete **
hoomd_sim.py:134  |      run(params['steps_per_extrude'])
** starting run **
Time 02:55:35 | Step 844201 / 844201 | TPS 82.1985 | ETA 00:00:00
Average TPS: 82.1949
---------
-- Neighborlist stats:
28 normal updates / 3 forced updates / 0 dangerous updates
n_neigh_min: 0 / n_neigh_max: 129 / n_neigh_avg: 51.5463
shortest rebuild period: 6
-- Cell list stats:
Dimension: 27, 27, 27
n_min    : 0 / n_max: 38 / n_avg: 0.152416
** run complete **
hoomd_sim.py:134  |      run(params['steps_per_extrude'])
** starting run **
Time 02:55:38 | Step 844401 / 844401 | TPS 82.4143 | ETA 00:00:00
Average TPS: 82.4106
---------
-- Neighborlist stats:
28 normal updates / 3 forced updates / 0 dangerous updates
n_neigh_min: 0 / n_neigh_max: 129 / n_neigh_avg: 51.23
shortest rebuild period: 6
-- Cell list stats:
Dimension: 27, 27, 27
n_min    : 0 / n_max: 42 / n_avg: 0.152416
** run complete **
hoomd_sim.py:134  |      run(params['steps_per_extrude'])
** starting run **
Time 02:55:40 | Step 844601 / 844601 | TPS 82.6346 | ETA 00:00:00
Average TPS: 82.6309
---------
-- Neighborlist stats:
28 normal updates / 3 forced updates / 0 dangerous updates
n_neigh_min: 0 / n_neigh_max: 127 / n_neigh_avg: 50.6593
shortest rebuild period: 6
-- Cell list stats:
Dimension: 27, 27, 27
n_min    : 0 / n_max: 39 / n_avg: 0.152416
** run complete **
hoomd_sim.py:134  |      run(params['steps_per_extrude'])
** starting run **
Time 02:55:43 | Step 844801 / 844801 | TPS 82.6275 | ETA 00:00:00
Average TPS: 82.6238
---------
-- Neighborlist stats:
28 normal updates / 3 forced updates / 0 dangerous updates
n_neigh_min: 0 / n_neigh_max: 128 / n_neigh_avg: 51.2637
shortest rebuild period: 6
-- Cell list stats:
Dimension: 27, 27, 27
n_min    : 0 / n_max: 40 / n_avg: 0.152416
** run complete **
hoomd_sim.py:134  |      run(params['steps_per_extrude'])
** starting run **
Time 02:55:45 | Step 845001 / 845001 | TPS 83.3791 | ETA 00:00:00
Average TPS: 83.3754
---------
-- Neighborlist stats:
27 normal updates / 3 forced updates / 0 dangerous updates
n_neigh_min: 0 / n_neigh_max: 131 / n_neigh_avg: 50.7917
shortest rebuild period: 6
-- Cell list stats:
Dimension: 27, 27, 27
n_min    : 0 / n_max: 39 / n_avg: 0.152416
** run complete **
hoomd_sim.py:134  |      run(params['steps_per_extrude'])
** starting run **
Time 02:55:48 | Step 845201 / 845201 | TPS 81.3953 | ETA 00:00:00
Average TPS: 81.3918
---------
-- Neighborlist stats:
29 normal updates / 3 forced updates / 0 dangerous updates
n_neigh_min: 0 / n_neigh_max: 127 / n_neigh_avg: 51.3
shortest rebuild period: 6
-- Cell list stats:
Dimension: 27, 27, 27
n_min    : 0 / n_max: 38 / n_avg: 0.152416
** run complete **
hoomd_sim.py:134  |      run(params['steps_per_extrude'])
** starting run **
Time 02:55:50 | Step 845401 / 845401 | TPS 81.8923 | ETA 00:00:00
Average TPS: 81.8888
---------
-- Neighborlist stats:
28 normal updates / 3 forced updates / 0 dangerous updates
n_neigh_min: 0 / n_neigh_max: 134 / n_neigh_avg: 51.5983
shortest rebuild period: 6
-- Cell list stats:
Dimension: 27, 27, 27
n_min    : 0 / n_max: 38 / n_avg: 0.152416
** run complete **
hoomd_sim.py:134  |      run(params['steps_per_extrude'])
** starting run **
Time 02:55:53 | Step 845601 / 845601 | TPS 82.68 | ETA 00:00:00
Average TPS: 82.6764
---------
-- Neighborlist stats:
27 normal updates / 3 forced updates / 0 dangerous updates
n_neigh_min: 0 / n_neigh_max: 133 / n_neigh_avg: 51.9553
shortest rebuild period: 6
-- Cell list stats:
Dimension: 27, 27, 27
n_min    : 0 / n_max: 41 / n_avg: 0.152416
** run complete **
hoomd_sim.py:134  |      run(params['steps_per_extrude'])
** starting run **
Time 02:55:55 | Step 845801 / 845801 | TPS 81.4281 | ETA 00:00:00
Average TPS: 81.4248
---------
-- Neighborlist stats:
28 normal updates / 3 forced updates / 0 dangerous updates
n_neigh_min: 0 / n_neigh_max: 127 / n_neigh_avg: 51.848
shortest rebuild period: 6
-- Cell list stats:
Dimension: 27, 27, 27
n_min    : 0 / n_max: 40 / n_avg: 0.152416
** run complete **
hoomd_sim.py:134  |      run(params['steps_per_extrude'])
** starting run **
Time 02:55:58 | Step 846001 / 846001 | TPS 81.2757 | ETA 00:00:00
Average TPS: 81.2722
---------
-- Neighborlist stats:
28 normal updates / 3 forced updates / 0 dangerous updates
n_neigh_min: 0 / n_neigh_max: 138 / n_neigh_avg: 51.835
shortest rebuild period: 6
-- Cell list stats:
Dimension: 27, 27, 27
n_min    : 0 / n_max: 41 / n_avg: 0.152416
** run complete **
hoomd_sim.py:134  |      run(params['steps_per_extrude'])
** starting run **
Time 02:56:00 | Step 846201 / 846201 | TPS 81.5957 | ETA 00:00:00
Average TPS: 81.5923
---------
-- Neighborlist stats:
28 normal updates / 3 forced updates / 0 dangerous updates
n_neigh_min: 0 / n_neigh_max: 135 / n_neigh_avg: 51.5217
shortest rebuild period: 6
-- Cell list stats:
Dimension: 27, 27, 27
n_min    : 0 / n_max: 43 / n_avg: 0.152416
** run complete **
hoomd_sim.py:134  |      run(params['steps_per_extrude'])
** starting run **
Time 02:56:03 | Step 846401 / 846401 | TPS 82.9982 | ETA 00:00:00
Average TPS: 82.9944
---------
-- Neighborlist stats:
27 normal updates / 3 forced updates / 0 dangerous updates
n_neigh_min: 0 / n_neigh_max: 135 / n_neigh_avg: 51.3507
shortest rebuild period: 7
-- Cell list stats:
Dimension: 27, 27, 27
n_min    : 0 / n_max: 38 / n_avg: 0.152416
** run complete **
hoomd_sim.py:134  |      run(params['steps_per_extrude'])
** starting run **
Time 02:56:05 | Step 846601 / 846601 | TPS 81.9991 | ETA 00:00:00
Average TPS: 81.9955
---------
-- Neighborlist stats:
28 normal updates / 3 forced updates / 0 dangerous updates
n_neigh_min: 0 / n_neigh_max: 137 / n_neigh_avg: 51.683
shortest rebuild period: 6
-- Cell list stats:
Dimension: 27, 27, 27
n_min    : 0 / n_max: 38 / n_avg: 0.152416
** run complete **
hoomd_sim.py:134  |      run(params['steps_per_extrude'])
** starting run **
Time 02:56:08 | Step 846801 / 846801 | TPS 83.062 | ETA 00:00:00
Average TPS: 83.0583
---------
-- Neighborlist stats:
27 normal updates / 3 forced updates / 0 dangerous updates
n_neigh_min: 0 / n_neigh_max: 133 / n_neigh_avg: 51.8097
shortest rebuild period: 7
-- Cell list stats:
Dimension: 27, 27, 27
n_min    : 0 / n_max: 41 / n_avg: 0.152416
** run complete **
hoomd_sim.py:134  |      run(params['steps_per_extrude'])
** starting run **
Time 02:56:10 | Step 847001 / 847001 | TPS 83.0291 | ETA 00:00:00
Average TPS: 83.0254
---------
-- Neighborlist stats:
27 normal updates / 3 forced updates / 0 dangerous updates
n_neigh_min: 0 / n_neigh_max: 139 / n_neigh_avg: 51.747
shortest rebuild period: 7
-- Cell list stats:
Dimension: 27, 27, 27
n_min    : 0 / n_max: 40 / n_avg: 0.152416
** run complete **
hoomd_sim.py:134  |      run(params['steps_per_extrude'])
** starting run **
Time 02:56:13 | Step 847201 / 847201 | TPS 82.3159 | ETA 00:00:00
Average TPS: 82.3122
---------
-- Neighborlist stats:
28 normal updates / 3 forced updates / 0 dangerous updates
n_neigh_min: 0 / n_neigh_max: 127 / n_neigh_avg: 50.8437
shortest rebuild period: 6
-- Cell list stats:
Dimension: 27, 27, 27
n_min    : 0 / n_max: 38 / n_avg: 0.152416
** run complete **
hoomd_sim.py:134  |      run(params['steps_per_extrude'])
** starting run **
Time 02:56:15 | Step 847401 / 847401 | TPS 83.1091 | ETA 00:00:00
Average TPS: 83.1053
---------
-- Neighborlist stats:
28 normal updates / 3 forced updates / 0 dangerous updates
n_neigh_min: 0 / n_neigh_max: 127 / n_neigh_avg: 50.4843
shortest rebuild period: 6
-- Cell list stats:
Dimension: 27, 27, 27
n_min    : 0 / n_max: 40 / n_avg: 0.152416
** run complete **
hoomd_sim.py:134  |      run(params['steps_per_extrude'])
** starting run **
Time 02:56:17 | Step 847601 / 847601 | TPS 81.939 | ETA 00:00:00
Average TPS: 81.9354
---------
-- Neighborlist stats:
28 normal updates / 3 forced updates / 0 dangerous updates
n_neigh_min: 0 / n_neigh_max: 135 / n_neigh_avg: 51.6487
shortest rebuild period: 6
-- Cell list stats:
Dimension: 27, 27, 27
n_min    : 0 / n_max: 41 / n_avg: 0.152416
** run complete **
hoomd_sim.py:134  |      run(params['steps_per_extrude'])
** starting run **
Time 02:56:20 | Step 847801 / 847801 | TPS 79.9903 | ETA 00:00:00
Average TPS: 79.9869
---------
-- Neighborlist stats:
28 normal updates / 3 forced updates / 0 dangerous updates
n_neigh_min: 0 / n_neigh_max: 138 / n_neigh_avg: 52.0207
shortest rebuild period: 6
-- Cell list stats:
Dimension: 27, 27, 27
n_min    : 0 / n_max: 42 / n_avg: 0.152416
** run complete **
hoomd_sim.py:134  |      run(params['steps_per_extrude'])
** starting run **
Time 02:56:23 | Step 848001 / 848001 | TPS 80.9566 | ETA 00:00:00
Average TPS: 80.9524
---------
-- Neighborlist stats:
27 normal updates / 3 forced updates / 0 dangerous updates
n_neigh_min: 0 / n_neigh_max: 128 / n_neigh_avg: 51.794
shortest rebuild period: 6
-- Cell list stats:
Dimension: 27, 27, 27
n_min    : 0 / n_max: 39 / n_avg: 0.152416
** run complete **
hoomd_sim.py:134  |      run(params['steps_per_extrude'])
** starting run **
Time 02:56:25 | Step 848201 / 848201 | TPS 73.742 | ETA 00:00:00
Average TPS: 73.739
---------
-- Neighborlist stats:
28 normal updates / 3 forced updates / 0 dangerous updates
n_neigh_min: 0 / n_neigh_max: 134 / n_neigh_avg: 51.2153
shortest rebuild period: 6
-- Cell list stats:
Dimension: 27, 27, 27
n_min    : 0 / n_max: 38 / n_avg: 0.152416
** run complete **
hoomd_sim.py:134  |      run(params['steps_per_extrude'])
** starting run **
Time 02:56:28 | Step 848401 / 848401 | TPS 81.9139 | ETA 00:00:00
Average TPS: 81.9104
---------
-- Neighborlist stats:
28 normal updates / 3 forced updates / 0 dangerous updates
n_neigh_min: 0 / n_neigh_max: 129 / n_neigh_avg: 51.13
shortest rebuild period: 6
-- Cell list stats:
Dimension: 27, 27, 27
n_min    : 0 / n_max: 43 / n_avg: 0.152416
** run complete **
hoomd_sim.py:134  |      run(params['steps_per_extrude'])
** starting run **
Time 02:56:30 | Step 848601 / 848601 | TPS 81.364 | ETA 00:00:00
Average TPS: 81.3603
---------
-- Neighborlist stats:
28 normal updates / 3 forced updates / 0 dangerous updates
n_neigh_min: 0 / n_neigh_max: 129 / n_neigh_avg: 51.3113
shortest rebuild period: 6
-- Cell list stats:
Dimension: 27, 27, 27
n_min    : 0 / n_max: 39 / n_avg: 0.152416
** run complete **
hoomd_sim.py:134  |      run(params['steps_per_extrude'])
** starting run **
Time 02:56:33 | Step 848801 / 848801 | TPS 78.3883 | ETA 00:00:00
Average TPS: 78.3849
---------
-- Neighborlist stats:
30 normal updates / 3 forced updates / 0 dangerous updates
n_neigh_min: 0 / n_neigh_max: 132 / n_neigh_avg: 51.8003
shortest rebuild period: 5
-- Cell list stats:
Dimension: 27, 27, 27
n_min    : 0 / n_max: 41 / n_avg: 0.152416
** run complete **
hoomd_sim.py:134  |      run(params['steps_per_extrude'])
** starting run **
Time 02:56:35 | Step 849001 / 849001 | TPS 79.8035 | ETA 00:00:00
Average TPS: 79.8001
---------
-- Neighborlist stats:
29 normal updates / 3 forced updates / 0 dangerous updates
n_neigh_min: 0 / n_neigh_max: 131 / n_neigh_avg: 51.5917
shortest rebuild period: 6
-- Cell list stats:
Dimension: 27, 27, 27
n_min    : 0 / n_max: 41 / n_avg: 0.152416
** run complete **
hoomd_sim.py:134  |      run(params['steps_per_extrude'])
** starting run **
Time 02:56:38 | Step 849201 / 849201 | TPS 80.9713 | ETA 00:00:00
Average TPS: 80.9678
---------
-- Neighborlist stats:
28 normal updates / 3 forced updates / 0 dangerous updates
n_neigh_min: 0 / n_neigh_max: 132 / n_neigh_avg: 51.627
shortest rebuild period: 6
-- Cell list stats:
Dimension: 27, 27, 27
n_min    : 0 / n_max: 39 / n_avg: 0.152416
** run complete **
hoomd_sim.py:134  |      run(params['steps_per_extrude'])
** starting run **
Time 02:56:40 | Step 849401 / 849401 | TPS 81.8076 | ETA 00:00:00
Average TPS: 81.804
---------
-- Neighborlist stats:
27 normal updates / 3 forced updates / 0 dangerous updates
n_neigh_min: 0 / n_neigh_max: 129 / n_neigh_avg: 51.5283
shortest rebuild period: 6
-- Cell list stats:
Dimension: 27, 27, 27
n_min    : 0 / n_max: 42 / n_avg: 0.152416
** run complete **
hoomd_sim.py:134  |      run(params['steps_per_extrude'])
** starting run **
Time 02:56:43 | Step 849601 / 849601 | TPS 79.5363 | ETA 00:00:00
Average TPS: 79.533
---------
-- Neighborlist stats:
29 normal updates / 3 forced updates / 0 dangerous updates
n_neigh_min: 0 / n_neigh_max: 136 / n_neigh_avg: 52.0693
shortest rebuild period: 6
-- Cell list stats:
Dimension: 27, 27, 27
n_min    : 0 / n_max: 41 / n_avg: 0.152416
** run complete **
hoomd_sim.py:134  |      run(params['steps_per_extrude'])
** starting run **
Time 02:56:45 | Step 849801 / 849801 | TPS 81.6968 | ETA 00:00:00
Average TPS: 81.6932
---------
-- Neighborlist stats:
27 normal updates / 3 forced updates / 0 dangerous updates
n_neigh_min: 0 / n_neigh_max: 139 / n_neigh_avg: 52.1497
shortest rebuild period: 6
-- Cell list stats:
Dimension: 27, 27, 27
n_min    : 0 / n_max: 42 / n_avg: 0.152416
** run complete **
hoomd_sim.py:134  |      run(params['steps_per_extrude'])
** starting run **
Time 02:56:48 | Step 850001 / 850001 | TPS 81.7488 | ETA 00:00:00
Average TPS: 81.7454
---------
-- Neighborlist stats:
27 normal updates / 3 forced updates / 0 dangerous updates
n_neigh_min: 0 / n_neigh_max: 128 / n_neigh_avg: 51.618
shortest rebuild period: 6
-- Cell list stats:
Dimension: 27, 27, 27
n_min    : 0 / n_max: 42 / n_avg: 0.152416
** run complete **
